&FCI NORB=  2,NELEC=  2,MS2=0,
 ORBSYM=1,1
 ISYM=1,
&END
-6.9089676700e-02     1     1     2     2
 6.9089676700e-02     1     2     2     1
 6.9089676700e-02     2     1     1     2
-6.9089676700e-02     2     2     1     1
0.0 0 0 0 0
-6.9089676700e-02     1     1     2     2
 6.9089676700e-02     1     2     2     1
 6.9089676700e-02     2     1     1     2
-6.9089676700e-02     2     2     1     1
0.0 0 0 0 0
 1.5586124700e-01     1     1     1     1
-1.1472285130e-01     1     1     1     2
-1.1472285130e-01     1     1     2     1
 1.0795541300e-02     1     1     2     2
-1.1472285130e-01     1     2     1     1
 7.9885218000e-02     1     2     1     2
 7.9885218000e-02     1     2     2     1
-1.6456413700e-02     1     2     2     2
-1.1472285130e-01     2     1     1     1
 7.9885218000e-02     2     1     1     2
 7.9885218000e-02     2     1     2     1
-1.6456413700e-02     2     1     2     2
 1.0795541300e-02     2     2     1     1
-1.6456413700e-02     2     2     1     2
-1.6456413700e-02     2     2     2     1
 9.6603838000e-03     2     2     2     2
0.0 0 0 0 0
-3.2850828030e-01     1     1     0     0
 1.1473124500e-01     1     2     0     0
 1.1473124500e-01     2     1     0     0
-1.5580595350e-01     2     2     0     0
0.0 0 0 0 0
-3.2850828030e-01     1     1     0     0
 1.1473124500e-01     1     2     0     0
 1.1473124500e-01     2     1     0     0
-1.5580595350e-01     2     2     0     0
0.0000000000e+00 0 0 0 0
