&FCI NORB=  2,NELEC=  2,MS2=0,
 ORBSYM=1,1
 ISYM=1,
&END
 1.2308797050e-01     1     1     2     2
-1.2308797050e-01     1     2     2     1
-1.2308797050e-01     2     1     1     2
 1.2308797050e-01     2     2     1     1
0.0 0 0 0 0
 1.2308797050e-01     1     1     2     2
-1.2308797050e-01     1     2     2     1
-1.2308797050e-01     2     1     1     2
 1.2308797050e-01     2     2     1     1
0.0 0 0 0 0
 2.8258304840e-01     1     1     1     1
 1.4158235400e-01     1     1     1     2
 1.4158235400e-01     1     1     2     1
 2.3821378190e-01     1     1     2     2
 1.4158235400e-01     1     2     1     1
 1.1512581140e-01     1     2     1     2
 1.1512581140e-01     1     2     2     1
 1.3770607470e-01     1     2     2     2
 1.4158235400e-01     2     1     1     1
 1.1512581140e-01     2     1     1     2
 1.1512581140e-01     2     1     2     1
 1.3770607470e-01     2     1     2     2
 2.3821378190e-01     2     2     1     1
 1.3770607470e-01     2     2     1     2
 1.3770607470e-01     2     2     2     1
 2.2399358440e-01     2     2     2     2
0.0 0 0 0 0
-5.7950657440e-01     1     1     0     0
-1.4158205350e-01     1     2     0     0
-1.4158205350e-01     2     1     0     0
-1.1439133430e-01     2     2     0     0
0.0 0 0 0 0
-5.7950657440e-01     1     1     0     0
-1.4158205350e-01     1     2     0     0
-1.4158205350e-01     2     1     0     0
-1.1439133430e-01     2     2     0     0
0.0000000000e+00 0 0 0 0
