&FCI NORB=  2,NELEC=  2,MS2=0,
 ORBSYM=1,1
 ISYM=1,
&END
 1.2743958050e-01     1     1     2     2
-1.2743958050e-01     1     2     2     1
-1.2743958050e-01     2     1     1     2
 1.2743958050e-01     2     2     1     1
0.0 0 0 0 0
 1.2743958050e-01     1     1     2     2
-1.2743958050e-01     1     2     2     1
-1.2743958050e-01     2     1     1     2
 1.2743958050e-01     2     2     1     1
0.0 0 0 0 0
 2.9245429510e-01     1     1     1     1
 1.4664308620e-01     1     1     1     2
 1.4664308620e-01     1     1     2     1
 2.4303812990e-01     1     1     2     2
 1.4664308620e-01     1     2     1     1
 1.1559854940e-01     1     2     1     2
 1.1559854940e-01     1     2     2     1
 1.3987936560e-01     1     2     2     2
 1.4664308620e-01     2     1     1     1
 1.1559854940e-01     2     1     1     2
 1.1559854940e-01     2     1     2     1
 1.3987936560e-01     2     1     2     2
 2.4303812990e-01     2     2     1     1
 1.3987936560e-01     2     2     1     2
 1.3987936560e-01     2     2     2     1
 2.2385950440e-01     2     2     2     2
0.0 0 0 0 0
-5.9420760030e-01     1     1     0     0
-1.4664269460e-01     1     2     0     0
-1.4664269460e-01     2     1     0     0
-1.0864111040e-01     2     2     0     0
0.0 0 0 0 0
-5.9420760030e-01     1     1     0     0
-1.4664269460e-01     1     2     0     0
-1.4664269460e-01     2     1     0     0
-1.0864111040e-01     2     2     0     0
0.0000000000e+00 0 0 0 0
