&FCI NORB=  2,NELEC=  2,MS2=0,
 ORBSYM=1,1
 ISYM=1,
&END
 1.1832063080e-01     1     1     2     2
-1.1832063080e-01     1     2     2     1
-1.1832063080e-01     2     1     1     2
 1.1832063080e-01     2     2     1     1
0.0 0 0 0 0
 1.1832063080e-01     1     1     2     2
-1.1832063080e-01     1     2     2     1
-1.1832063080e-01     2     1     1     2
 1.1832063080e-01     2     2     1     1
0.0 0 0 0 0
 2.7323731030e-01     1     1     1     1
 1.3652703180e-01     1     1     1     2
 1.3652703180e-01     1     1     2     1
 2.3310046430e-01     1     1     2     2
 1.3652703180e-01     1     2     1     1
 1.1477983350e-01     1     2     1     2
 1.1477983350e-01     1     2     2     1
 1.3434223370e-01     1     2     2     2
 1.3652703180e-01     2     1     1     1
 1.1477983350e-01     2     1     1     2
 1.1477983350e-01     2     1     2     1
 1.3434223370e-01     2     1     2     2
 2.3310046430e-01     2     2     1     1
 1.3434223370e-01     2     2     1     2
 1.3434223370e-01     2     2     2     1
 2.2266829760e-01     2     2     2     2
0.0 0 0 0 0
-5.6510715640e-01     1     1     0     0
-1.3652697450e-01     1     2     0     0
-1.3652697450e-01     2     1     0     0
-1.2325811820e-01     2     2     0     0
0.0 0 0 0 0
-5.6510715640e-01     1     1     0     0
-1.3652697450e-01     1     2     0     0
-1.3652697450e-01     2     1     0     0
-1.2325811820e-01     2     2     0     0
0.0000000000e+00 0 0 0 0
