&FCI NORB=  2,NELEC=  2,MS2=0,
 ORBSYM=1,1
 ISYM=1,
&END
 1.3185029240e-01     1     1     2     2
-1.3185029240e-01     1     2     2     1
-1.3185029240e-01     2     1     1     2
 1.3185029240e-01     2     2     1     1
0.0 0 0 0 0
 1.3185029240e-01     1     1     2     2
-1.3185029240e-01     1     2     2     1
-1.3185029240e-01     2     1     1     2
 1.3185029240e-01     2     2     1     1
0.0 0 0 0 0
 3.0286596640e-01     1     1     1     1
 1.5128846140e-01     1     1     1     2
 1.5128846140e-01     1     1     2     1
 2.4834082010e-01     1     1     2     2
 1.5128846140e-01     1     2     1     1
 1.1649052770e-01     1     2     1     2
 1.1649052770e-01     1     2     2     1
 1.4122196750e-01     1     2     2     2
 1.5128846140e-01     2     1     1     1
 1.1649052770e-01     2     1     1     2
 1.1649052770e-01     2     1     2     1
 1.4122196750e-01     2     1     2     2
 2.4834082010e-01     2     2     1     1
 1.4122196750e-01     2     2     1     2
 1.4122196750e-01     2     2     2     1
 2.2393831100e-01     2     2     2     2
0.0 0 0 0 0
-6.0909362020e-01     1     1     0     0
-1.5128785890e-01     1     2     0     0
-1.5128785890e-01     2     1     0     0
-1.0671957840e-01     2     2     0     0
0.0 0 0 0 0
-6.0909362020e-01     1     1     0     0
-1.5128785890e-01     1     2     0     0
-1.5128785890e-01     2     1     0     0
-1.0671957840e-01     2     2     0     0
0.0000000000e+00 0 0 0 0
