&FCI NORB=  2,NELEC=  2,MS2=0,
 ORBSYM=1,1
 ISYM=1,
&END
 1.0693484110e-01     1     1     2     2
-1.0693484110e-01     1     2     2     1
-1.0693484110e-01     2     1     1     2
 1.0693484110e-01     2     2     1     1
0.0 0 0 0 0
 1.0693484110e-01     1     1     2     2
-1.0693484110e-01     1     2     2     1
-1.0693484110e-01     2     1     1     2
 1.0693484110e-01     2     2     1     1
0.0 0 0 0 0
 2.5610549580e-01     1     1     1     1
-1.2801155440e-01     1     1     1     2
-1.2801155440e-01     1     1     2     1
 2.2091721460e-01     1     1     2     2
-1.2801155440e-01     1     2     1     1
 1.1398237350e-01     1     2     1     2
 1.1398237350e-01     1     2     2     1
-1.2527621470e-01     1     2     2     2
-1.2801155440e-01     2     1     1     1
 1.1398237350e-01     2     1     1     2
 1.1398237350e-01     2     1     2     1
-1.2527621470e-01     2     1     2     2
 2.2091721460e-01     2     2     1     1
-1.2527621470e-01     2     2     1     2
-1.2527621470e-01     2     2     2     1
 2.1406160170e-01     2     2     2     2
0.0 0 0 0 0
-5.3761875290e-01     1     1     0     0
 1.2801181970e-01     1     2     0     0
 1.2801181970e-01     2     1     0     0
-1.4489910670e-01     2     2     0     0
0.0 0 0 0 0
-5.3761875290e-01     1     1     0     0
 1.2801181970e-01     1     2     0     0
 1.2801181970e-01     2     1     0     0
-1.4489910670e-01     2     2     0     0
0.0000000000e+00 0 0 0 0
