&FCI NORB=  2,NELEC=  2,MS2=0,
 ORBSYM=1,1
 ISYM=1,
&END
 3.8383069000e-02     1     1     2     2
-3.8383069000e-02     1     2     2     1
-3.8383069000e-02     2     1     1     2
 3.8383069000e-02     2     2     1     1
0.0 0 0 0 0
 3.8383069000e-02     1     1     2     2
-3.8383069000e-02     1     2     2     1
-3.8383069000e-02     2     1     1     2
 3.8383069000e-02     2     2     1     1
0.0 0 0 0 0
 1.9525062170e-01     1     1     1     1
-1.1643477460e-01     1     1     1     2
-1.1643477460e-01     1     1     2     1
 1.4591737290e-01     1     1     2     2
-1.1643477460e-01     1     2     1     1
 1.0753430390e-01     1     2     1     2
 1.0753430390e-01     1     2     2     1
-8.4377779400e-02     1     2     2     2
-1.1643477460e-01     2     1     1     1
 1.0753430390e-01     2     1     1     2
 1.0753430390e-01     2     1     2     1
-8.4377779400e-02     2     1     2     2
 1.4591737290e-01     2     2     1     1
-8.4377779400e-02     2     2     1     2
-8.4377779400e-02     2     2     2     1
 1.3038334880e-01     2     2     2     2
0.0 0 0 0 0
-4.2770623380e-01     1     1     0     0
 1.1643748720e-01     1     2     0     0
 1.1643748720e-01     2     1     0     0
-2.0299654590e-01     2     2     0     0
0.0 0 0 0 0
-4.2770623380e-01     1     1     0     0
 1.1643748720e-01     1     2     0     0
 1.1643748720e-01     2     1     0     0
-2.0299654590e-01     2     2     0     0
0.0000000000e+00 0 0 0 0
