&FCI NORB=  2,NELEC=  2,MS2=0,
 ORBSYM=1,1
 ISYM=1,
&END
 6.7807020100e-02     1     1     2     2
-6.7807020100e-02     1     2     2     1
-6.7807020100e-02     2     1     1     2
 6.7807020100e-02     2     2     1     1
0.0 0 0 0 0
 6.7807020100e-02     1     1     2     2
-6.7807020100e-02     1     2     2     1
-6.7807020100e-02     2     1     1     2
 6.7807020100e-02     2     2     1     1
0.0 0 0 0 0
 2.1677875440e-01     1     1     1     1
-1.1712567690e-01     1     1     1     2
-1.1712567690e-01     1     1     2     1
 1.7857356300e-01     1     1     2     2
-1.1712567690e-01     1     2     1     1
 1.1076654290e-01     1     2     1     2
 1.1076654290e-01     1     2     2     1
-9.9644786800e-02     1     2     2     2
-1.1712567690e-01     2     1     1     1
 1.1076654290e-01     2     1     1     2
 1.1076654290e-01     2     1     2     1
-9.9644786800e-02     2     1     2     2
 1.7857356300e-01     2     2     1     1
-9.9644786800e-02     2     2     1     2
-9.9644786800e-02     2     2     2     1
 1.6851966620e-01     2     2     2     2
0.0 0 0 0 0
-4.6922106490e-01     1     1     0     0
 1.1712715760e-01     1     2     0     0
 1.1712715760e-01     2     1     0     0
-1.9125770010e-01     2     2     0     0
0.0 0 0 0 0
-4.6922106490e-01     1     1     0     0
 1.1712715760e-01     1     2     0     0
 1.1712715760e-01     2     1     0     0
-1.9125770010e-01     2     2     0     0
0.0000000000e+00 0 0 0 0
