&FCI NORB=  2,NELEC=  2,MS2=0,
 ORBSYM=1,1
 ISYM=1,
&END
 1.0056095140e-01     1     1     2     2
-1.0056095140e-01     1     2     2     1
-1.0056095140e-01     2     1     1     2
 1.0056095140e-01     2     2     1     1
0.0 0 0 0 0
 1.0056095140e-01     1     1     2     2
-1.0056095140e-01     1     2     2     1
-1.0056095140e-01     2     1     1     2
 1.0056095140e-01     2     2     1     1
0.0 0 0 0 0
 2.4832405240e-01     1     1     1     1
-1.2481924340e-01     1     1     1     2
-1.2481924340e-01     1     1     2     1
 2.1406467430e-01     1     1     2     2
-1.2481924340e-01     1     2     1     1
 1.1350372290e-01     1     2     1     2
 1.1350372290e-01     1     2     2     1
-1.2041981850e-01     1     2     2     2
-1.2481924340e-01     2     1     1     1
 1.1350372290e-01     2     1     1     2
 1.1350372290e-01     2     1     2     1
-1.2041981850e-01     2     1     2     2
 2.1406467430e-01     2     2     1     1
-1.2041981850e-01     2     2     1     2
-1.2041981850e-01     2     2     2     1
 2.0756627920e-01     2     2     2     2
0.0 0 0 0 0
-5.2469000860e-01     1     1     0     0
 1.2481963440e-01     1     2     0     0
 1.2481963440e-01     2     1     0     0
-1.5544814210e-01     2     2     0     0
0.0 0 0 0 0
-5.2469000860e-01     1     1     0     0
 1.2481963440e-01     1     2     0     0
 1.2481963440e-01     2     1     0     0
-1.5544814210e-01     2     2     0     0
0.0000000000e+00 0 0 0 0
