&FCI NORB=  2,NELEC=  2,MS2=0,
 ORBSYM=1,1
 ISYM=1,
&END
-7.7406465800e-02     1     1     2     2
 7.7406465800e-02     1     2     2     1
 7.7406465800e-02     2     1     1     2
-7.7406465800e-02     2     2     1     1
0.0 0 0 0 0
-7.7406465800e-02     1     1     2     2
 7.7406465800e-02     1     2     2     1
 7.7406465800e-02     2     1     1     2
-7.7406465800e-02     2     2     1     1
0.0 0 0 0 0
 1.5552785860e-01     1     1     1     1
-1.1374842100e-01     1     1     1     2
-1.1374842100e-01     1     1     2     1
-3.2818000000e-06     1     1     2     2
-1.1374842100e-01     1     2     1     1
 7.7403184000e-02     1     2     1     2
 7.7403184000e-02     1     2     2     1
-1.1968527900e-02     1     2     2     2
-1.1374842100e-01     2     1     1     1
 7.7403184000e-02     2     1     1     2
 7.7403184000e-02     2     1     2     1
-1.1968527900e-02     2     1     2     2
-3.2818000000e-06     2     2     1     1
-1.1968527900e-02     2     2     1     2
-1.1968527900e-02     2     2     2     1
 3.8563053000e-03     2     2     2     2
0.0 0 0 0 0
-3.2194471280e-01     1     1     0     0
 1.1375589340e-01     1     2     0     0
 1.1375589340e-01     2     1     0     0
-1.4584856500e-01     2     2     0     0
0.0 0 0 0 0
-3.2194471280e-01     1     1     0     0
 1.1375589340e-01     1     2     0     0
 1.1375589340e-01     2     1     0     0
-1.4584856500e-01     2     2     0     0
0.0000000000e+00 0 0 0 0
