&FCI NORB=  2,NELEC=  2,MS2=0,
 ORBSYM=1,1
 ISYM=1,
&END
 1.0056565520e-01     1     1     2     2
-1.0056565520e-01     1     2     2     1
-1.0056565520e-01     2     1     1     2
 1.0056565520e-01     2     2     1     1
0.0 0 0 0 0
 1.0056565520e-01     1     1     2     2
-1.0056565520e-01     1     2     2     1
-1.0056565520e-01     2     1     1     2
 1.0056565520e-01     2     2     1     1
0.0 0 0 0 0
 2.4832401340e-01     1     1     1     1
-1.2481320990e-01     1     1     1     2
-1.2481320990e-01     1     1     2     1
 2.1406983530e-01     1     1     2     2
-1.2481320990e-01     1     2     1     1
 1.1350418010e-01     1     2     1     2
 1.1350418010e-01     1     2     2     1
-1.2041400060e-01     1     2     2     2
-1.2481320990e-01     2     1     1     1
 1.1350418010e-01     2     1     1     2
 1.1350418010e-01     2     1     2     1
-1.2041400060e-01     2     1     2     2
 2.1406983530e-01     2     2     1     1
-1.2041400060e-01     2     2     1     2
-1.2041400060e-01     2     2     2     1
 2.0757619090e-01     2     2     2     2
0.0 0 0 0 0
-5.2468998880e-01     1     1     0     0
 1.2481370530e-01     1     2     0     0
 1.2481370530e-01     2     1     0     0
-1.5544970470e-01     2     2     0     0
0.0 0 0 0 0
-5.2468998880e-01     1     1     0     0
 1.2481370530e-01     1     2     0     0
 1.2481370530e-01     2     1     0     0
-1.5544970470e-01     2     2     0     0
0.0000000000e+00 0 0 0 0
