&FCI NORB=  2,NELEC=  2,MS2=0,
 ORBSYM=1,1
 ISYM=1,
&END
 1.3670265670e-01     1     1     2     2
-1.3670265670e-01     1     2     2     1
-1.3670265670e-01     2     1     1     2
 1.3670265670e-01     2     2     1     1
0.0 0 0 0 0
 1.3670265670e-01     1     1     2     2
-1.3670265670e-01     1     2     2     1
-1.3670265670e-01     2     1     1     2
 1.3670265670e-01     2     2     1     1
0.0 0 0 0 0
 3.1378962450e-01     1     1     1     1
-1.5541065810e-01     1     1     1     2
-1.5541065810e-01     1     1     2     1
 2.5480907220e-01     1     1     2     2
-1.5541065810e-01     1     2     1     1
 1.1810641550e-01     1     2     1     2
 1.1810641550e-01     1     2     2     1
-1.4252113010e-01     1     2     2     2
-1.5541065810e-01     2     1     1     1
 1.1810641550e-01     2     1     1     2
 1.1810641550e-01     2     1     2     1
-1.4252113010e-01     2     1     2     2
 2.5480907220e-01     2     2     1     1
-1.4252113010e-01     2     2     1     2
-1.4252113010e-01     2     2     2     1
 2.2599506830e-01     2     2     2     2
0.0 0 0 0 0
-6.2397752690e-01     1     1     0     0
 1.5540988290e-01     1     2     0     0
 1.5540988290e-01     2     1     0     0
-1.0839398960e-01     2     2     0     0
0.0 0 0 0 0
-6.2397752690e-01     1     1     0     0
 1.5540988290e-01     1     2     0     0
 1.5540988290e-01     2     1     0     0
-1.0839398960e-01     2     2     0     0
0.0000000000e+00 0 0 0 0
