&FCI NORB=  2,NELEC=  2,MS2=0,
 ORBSYM=1,1
 ISYM=1,
&END
 1.0693574440e-01     1     1     2     2
-1.0693574440e-01     1     2     2     1
-1.0693574440e-01     2     1     1     2
 1.0693574440e-01     2     2     1     1
0.0 0 0 0 0
 1.0693574440e-01     1     1     2     2
-1.0693574440e-01     1     2     2     1
-1.0693574440e-01     2     1     1     2
 1.0693574440e-01     2     2     1     1
0.0 0 0 0 0
 2.5610551420e-01     1     1     1     1
 1.2800735190e-01     1     1     1     2
 1.2800735190e-01     1     1     2     1
 2.2091754250e-01     1     1     2     2
 1.2800735190e-01     1     2     1     1
 1.1398179810e-01     1     2     1     2
 1.1398179810e-01     1     2     2     1
 1.2527025820e-01     1     2     2     2
 1.2800735190e-01     2     1     1     1
 1.1398179810e-01     2     1     1     2
 1.1398179810e-01     2     1     2     1
 1.2527025820e-01     2     1     2     2
 2.2091754250e-01     2     2     1     1
 1.2527025820e-01     2     2     1     2
 1.2527025820e-01     2     2     2     1
 2.1406251610e-01     2     2     2     2
0.0 0 0 0 0
-5.3761876240e-01     1     1     0     0
-1.2800764390e-01     1     2     0     0
-1.2800764390e-01     2     1     0     0
-1.4490330680e-01     2     2     0     0
0.0 0 0 0 0
-5.3761876240e-01     1     1     0     0
-1.2800764390e-01     1     2     0     0
-1.2800764390e-01     2     1     0     0
-1.4490330680e-01     2     2     0     0
0.0000000000e+00 0 0 0 0
