&FCI NORB=  2,NELEC=  2,MS2=0,
 ORBSYM=1,1
 ISYM=1,
&END
 1.2308939390e-01     1     1     2     2
-1.2308939390e-01     1     2     2     1
-1.2308939390e-01     2     1     1     2
 1.2308939390e-01     2     2     1     1
0.0 0 0 0 0
 1.2308939390e-01     1     1     2     2
-1.2308939390e-01     1     2     2     1
-1.2308939390e-01     2     1     1     2
 1.2308939390e-01     2     2     1     1
0.0 0 0 0 0
 2.8258308720e-01     1     1     1     1
 1.4158023630e-01     1     1     1     2
 1.4158023630e-01     1     1     2     1
 2.3821534400e-01     1     1     2     2
 1.4158023630e-01     1     2     1     1
 1.1512595010e-01     1     2     1     2
 1.1512595010e-01     1     2     2     1
 1.3770447210e-01     1     2     2     2
 1.4158023630e-01     2     1     1     1
 1.1512595010e-01     2     1     1     2
 1.1512595010e-01     2     1     2     1
 1.3770447210e-01     2     1     2     2
 2.3821534400e-01     2     2     1     1
 1.3770447210e-01     2     2     1     2
 1.3770447210e-01     2     2     2     1
 2.2399696770e-01     2     2     2     2
0.0 0 0 0 0
-5.7950659350e-01     1     1     0     0
-1.4157988550e-01     1     2     0     0
-1.4157988550e-01     2     1     0     0
-1.1439206910e-01     2     2     0     0
0.0 0 0 0 0
-5.7950659350e-01     1     1     0     0
-1.4157988550e-01     1     2     0     0
-1.4157988550e-01     2     1     0     0
-1.1439206910e-01     2     2     0     0
0.0000000000e+00 0 0 0 0
