&FCI NORB=  2,NELEC=  2,MS2=0,
 ORBSYM=1,1
 ISYM=1,
&END
 3.8383164100e-02     1     1     2     2
-3.8383164100e-02     1     2     2     1
-3.8383164100e-02     2     1     1     2
 3.8383164100e-02     2     2     1     1
0.0 0 0 0 0
 3.8383164100e-02     1     1     2     2
-3.8383164100e-02     1     2     2     1
-3.8383164100e-02     2     1     1     2
 3.8383164100e-02     2     2     1     1
0.0 0 0 0 0
 1.9525061140e-01     1     1     1     1
-1.1643502470e-01     1     1     1     2
-1.1643502470e-01     1     1     2     1
 1.4591761240e-01     1     1     2     2
-1.1643502470e-01     1     2     1     1
 1.0753444830e-01     1     2     1     2
 1.0753444830e-01     1     2     2     1
-8.4378372500e-02     1     2     2     2
-1.1643502470e-01     2     1     1     1
 1.0753444830e-01     2     1     1     2
 1.0753444830e-01     2     1     2     1
-8.4378372500e-02     2     1     2     2
 1.4591761240e-01     2     2     1     1
-8.4378372500e-02     2     2     1     2
-8.4378372500e-02     2     2     2     1
 1.3038360900e-01     2     2     2     2
0.0 0 0 0 0
-4.2770622880e-01     1     1     0     0
 1.1643773000e-01     1     2     0     0
 1.1643773000e-01     2     1     0     0
-2.0299627340e-01     2     2     0     0
0.0 0 0 0 0
-4.2770622880e-01     1     1     0     0
 1.1643773000e-01     1     2     0     0
 1.1643773000e-01     2     1     0     0
-2.0299627340e-01     2     2     0     0
0.0000000000e+00 0 0 0 0
