&FCI NORB=  2,NELEC=  2,MS2=0,
 ORBSYM=1,1
 ISYM=1,
&END
-3.0049844300e-02     1     1     2     2
 3.0049844300e-02     1     2     2     1
 3.0049844300e-02     2     1     1     2
-3.0049844300e-02     2     2     1     1
0.0 0 0 0 0
-3.0049844300e-02     1     1     2     2
 3.0049844300e-02     1     2     2     1
 3.0049844300e-02     2     1     1     2
-3.0049844300e-02     2     2     1     1
0.0 0 0 0 0
 1.6407359770e-01     1     1     1     1
-1.1888089260e-01     1     1     1     2
-1.1888089260e-01     1     1     2     1
 6.3172231200e-02     1     1     2     2
-1.1888089260e-01     1     2     1     1
 9.3222075500e-02     1     2     1     2
 9.3222075500e-02     1     2     2     1
-4.5131363900e-02     1     2     2     2
-1.1888089260e-01     2     1     1     1
 9.3222075500e-02     2     1     1     2
 9.3222075500e-02     2     1     2     1
-4.5131363900e-02     2     1     2     2
 6.3172231200e-02     2     2     1     1
-4.5131363900e-02     2     2     1     2
-4.5131363900e-02     2     2     2     1
 4.3083929900e-02     2     2     2     2
0.0 0 0 0 0
-3.5691620900e-01     1     1     0     0
 1.1888777160e-01     1     2     0     0
 1.1888777160e-01     2     1     0     0
-1.8546668120e-01     2     2     0     0
0.0 0 0 0 0
-3.5691620900e-01     1     1     0     0
 1.1888777160e-01     1     2     0     0
 1.1888777160e-01     2     1     0     0
-1.8546668120e-01     2     2     0     0
0.0000000000e+00 0 0 0 0
