&FCI NORB=  2,NELEC=  2,MS2=0,
 ORBSYM=1,1
 ISYM=1,
&END
-3.0032220200e-02     1     1     2     2
 3.0032220200e-02     1     2     2     1
 3.0032220200e-02     2     1     1     2
-3.0032220200e-02     2     2     1     1
0.0 0 0 0 0
-3.0032220200e-02     1     1     2     2
 3.0032220200e-02     1     2     2     1
 3.0032220200e-02     2     1     1     2
-3.0032220200e-02     2     2     1     1
0.0 0 0 0 0
 1.6407360380e-01     1     1     1     1
-1.1889065310e-01     1     1     1     2
-1.1889065310e-01     1     1     2     1
 6.3204061300e-02     1     1     2     2
-1.1889065310e-01     1     2     1     1
 9.3236281500e-02     1     2     1     2
 9.3236281500e-02     1     2     2     1
-4.5162541200e-02     1     2     2     2
-1.1889065310e-01     2     1     1     1
 9.3236281500e-02     2     1     1     2
 9.3236281500e-02     2     1     2     1
-4.5162541200e-02     2     1     2     2
 6.3204061300e-02     2     2     1     1
-4.5162541200e-02     2     2     1     2
-4.5162541200e-02     2     2     2     1
 4.3104922600e-02     2     2     2     2
0.0 0 0 0 0
-3.5691621200e-01     1     1     0     0
 1.1889752810e-01     1     2     0     0
 1.1889752810e-01     2     1     0     0
-1.8546647730e-01     2     2     0     0
0.0 0 0 0 0
-3.5691621200e-01     1     1     0     0
 1.1889752810e-01     1     2     0     0
 1.1889752810e-01     2     1     0     0
-1.8546647730e-01     2     2     0     0
0.0000000000e+00 0 0 0 0
