&FCI NORB=  2,NELEC=  2,MS2=0,
 ORBSYM=1,1
 ISYM=1,
&END
-9.6994211000e-03     1     1     2     2
 9.6994211000e-03     1     2     2     1
 9.6994211000e-03     2     1     1     2
-9.6994211000e-03     2     2     1     1
0.0 0 0 0 0
-9.6994211000e-03     1     1     2     2
 9.6994211000e-03     1     2     2     1
 9.6994211000e-03     2     1     1     2
-9.6994211000e-03     2     2     1     1
0.0 0 0 0 0
 1.7077220210e-01     1     1     1     1
-1.1890490470e-01     1     1     1     2
-1.1890490470e-01     1     1     2     1
 8.9178275600e-02     1     1     2     2
-1.1890490470e-01     1     2     1     1
 9.8877696700e-02     1     2     1     2
 9.8877696700e-02     1     2     2     1
-5.8649909100e-02     1     2     2     2
-1.1890490470e-01     2     1     1     1
 9.8877696700e-02     2     1     1     2
 9.8877696700e-02     2     1     2     1
-5.8649909100e-02     2     1     2     2
 8.9178275600e-02     2     2     1     1
-5.8649909100e-02     2     2     1     2
-5.8649909100e-02     2     2     2     1
 6.7283771200e-02     2     2     2     2
0.0 0 0 0 0
-3.7402078710e-01     1     1     0     0
 1.1891045080e-01     1     2     0     0
 1.1891045080e-01     2     1     0     0
-1.9511446020e-01     2     2     0     0
0.0 0 0 0 0
-3.7402078710e-01     1     1     0     0
 1.1891045080e-01     1     2     0     0
 1.1891045080e-01     2     1     0     0
-1.9511446020e-01     2     2     0     0
0.0000000000e+00 0 0 0 0
