&FCI NORB=  2,NELEC=  2,MS2=0,
 ORBSYM=1,1
 ISYM=1,
&END
 1.1291279040e-01     1     1     2     2
-1.1291279040e-01     1     2     2     1
-1.1291279040e-01     2     1     1     2
 1.1291279040e-01     2     2     1     1
0.0 0 0 0 0
 1.1291279040e-01     1     1     2     2
-1.1291279040e-01     1     2     2     1
-1.1291279040e-01     2     1     1     2
 1.1291279040e-01     2     2     1     1
0.0 0 0 0 0
 2.6441046680e-01     1     1     1     1
-1.3192419800e-01     1     1     1     2
-1.3192419800e-01     1     1     2     1
 2.2732182240e-01     1     1     2     2
-1.3192419800e-01     1     2     1     1
 1.1440903200e-01     1     2     1     2
 1.1440903200e-01     1     2     2     1
-1.3003640530e-01     1     2     2     2
-1.3192419800e-01     2     1     1     1
 1.1440903200e-01     2     1     1     2
 1.1440903200e-01     2     1     2     1
-1.3003640530e-01     2     1     2     2
 2.2732182240e-01     2     2     1     1
-1.3003640530e-01     2     2     1     2
-1.3003640530e-01     2     2     2     1
 2.1926361500e-01     2     2     2     2
0.0 0 0 0 0
-5.5111378750e-01     1     1     0     0
 1.3192423330e-01     1     2     0     0
 1.3192423330e-01     2     1     0     0
-1.3387492010e-01     2     2     0     0
0.0 0 0 0 0
-5.5111378750e-01     1     1     0     0
 1.3192423330e-01     1     2     0     0
 1.3192423330e-01     2     1     0     0
-1.3387492010e-01     2     2     0     0
0.0000000000e+00 0 0 0 0
