&FCI NORB=  2,NELEC=  2,MS2=0,
 ORBSYM=1,1
 ISYM=1,
&END
-9.6675493000e-03     1     1     2     2
 9.6675493000e-03     1     2     2     1
 9.6675493000e-03     2     1     1     2
-9.6675493000e-03     2     2     1     1
0.0 0 0 0 0
-9.6675493000e-03     1     1     2     2
 9.6675493000e-03     1     2     2     1
 9.6675493000e-03     2     1     1     2
-9.6675493000e-03     2     2     1     1
0.0 0 0 0 0
 1.7077218360e-01     1     1     1     1
-1.1892072300e-01     1     1     1     2
-1.1892072300e-01     1     1     2     1
 8.9234388100e-02     1     1     2     2
-1.1892072300e-01     1     2     1     1
 9.8901937400e-02     1     2     1     2
 9.8901937400e-02     1     2     2     1
-5.8708323200e-02     1     2     2     2
-1.1892072300e-01     2     1     1     1
 9.8901937400e-02     2     1     1     2
 9.8901937400e-02     2     1     2     1
-5.8708323200e-02     2     1     2     2
 8.9234388100e-02     2     2     1     1
-5.8708323200e-02     2     2     1     2
-5.8708323200e-02     2     2     2     1
 6.7336727100e-02     2     2     2     2
0.0 0 0 0 0
-3.7402077800e-01     1     1     0     0
 1.1892626580e-01     1     2     0     0
 1.1892626580e-01     2     1     0     0
-1.9510502410e-01     2     2     0     0
0.0 0 0 0 0
-3.7402077800e-01     1     1     0     0
 1.1892626580e-01     1     2     0     0
 1.1892626580e-01     2     1     0     0
-1.9510502410e-01     2     2     0     0
0.0000000000e+00 0 0 0 0
