&FCI NORB=  2,NELEC=  2,MS2=0,
 ORBSYM=1,1
 ISYM=1,
&END
-6.9096478600e-02     1     1     2     2
 6.9096478600e-02     1     2     2     1
 6.9096478600e-02     2     1     1     2
-6.9096478600e-02     2     2     1     1
0.0 0 0 0 0
-6.9096478600e-02     1     1     2     2
 6.9096478600e-02     1     2     2     1
 6.9096478600e-02     2     1     1     2
-6.9096478600e-02     2     2     1     1
0.0 0 0 0 0
 1.5586126160e-01     1     1     1     1
-1.1471542970e-01     1     1     1     2
-1.1471542970e-01     1     1     2     1
 1.0780786800e-02     1     1     2     2
-1.1471542970e-01     1     2     1     1
 7.9877265400e-02     1     2     1     2
 7.9877265400e-02     1     2     2     1
-1.6441757900e-02     1     2     2     2
-1.1471542970e-01     2     1     1     1
 7.9877265400e-02     2     1     1     2
 7.9877265400e-02     2     1     2     1
-1.6441757900e-02     2     1     2     2
 1.0780786800e-02     2     2     1     1
-1.6441757900e-02     2     2     1     2
-1.6441757900e-02     2     2     2     1
 9.6610034000e-03     2     2     2     2
0.0 0 0 0 0
-3.2850828760e-01     1     1     0     0
 1.1472381990e-01     1     2     0     0
 1.1472381990e-01     2     1     0     0
-1.5580240810e-01     2     2     0     0
0.0 0 0 0 0
-3.2850828760e-01     1     1     0     0
 1.1472381990e-01     1     2     0     0
 1.1472381990e-01     2     1     0     0
-1.5580240810e-01     2     2     0     0
0.0000000000e+00 0 0 0 0
