&FCI NORB=  2,NELEC=  2,MS2=0,
 ORBSYM=1,1
 ISYM=1,
&END
 1.2744457660e-01     1     1     2     2
-1.2744457660e-01     1     2     2     1
-1.2744457660e-01     2     1     1     2
 1.2744457660e-01     2     2     1     1
0.0 0 0 0 0
 1.2744457660e-01     1     1     2     2
-1.2744457660e-01     1     2     2     1
-1.2744457660e-01     2     1     1     2
 1.2744457660e-01     2     2     1     1
0.0 0 0 0 0
 2.9245428810e-01     1     1     1     1
 1.4664186350e-01     1     1     1     2
 1.4664186350e-01     1     1     2     1
 2.4304488060e-01     1     1     2     2
 1.4664186350e-01     1     2     1     1
 1.1560030400e-01     1     2     1     2
 1.1560030400e-01     1     2     2     1
 1.3988247670e-01     1     2     2     2
 1.4664186350e-01     2     1     1     1
 1.1560030400e-01     2     1     1     2
 1.1560030400e-01     2     1     2     1
 1.3988247670e-01     2     1     2     2
 2.4304488060e-01     2     2     1     1
 1.3988247670e-01     2     2     1     2
 1.3988247670e-01     2     2     2     1
 2.2387259280e-01     2     2     2     2
0.0 0 0 0 0
-5.9420759710e-01     1     1     0     0
-1.4664147530e-01     1     2     0     0
-1.4664147530e-01     2     1     0     0
-1.0863389000e-01     2     2     0     0
0.0 0 0 0 0
-5.9420759710e-01     1     1     0     0
-1.4664147530e-01     1     2     0     0
-1.4664147530e-01     2     1     0     0
-1.0863389000e-01     2     2     0     0
0.0000000000e+00 0 0 0 0
