&FCI NORB=  2,NELEC=  2,MS2=0,
 ORBSYM=1,1
 ISYM=1,
&END
 1.2898625000e-02     1     1     2     2
-1.2898625000e-02     1     2     2     1
-1.2898625000e-02     2     1     1     2
 1.2898625000e-02     2     2     1     1
0.0 0 0 0 0
 1.2898625000e-02     1     1     2     2
-1.2898625000e-02     1     2     2     1
-1.2898625000e-02     2     1     1     2
 1.2898625000e-02     2     2     1     1
0.0 0 0 0 0
 1.8067557580e-01     1     1     1     1
-1.1773891940e-01     1     1     1     2
-1.1773891940e-01     1     1     2     1
 1.1652738060e-01     1     1     2     2
-1.1773891940e-01     1     2     1     1
 1.0362875560e-01     1     2     1     2
 1.0362875560e-01     1     2     2     1
-7.1425401300e-02     1     2     2     2
-1.1773891940e-01     2     1     1     1
 1.0362875560e-01     2     1     1     2
 1.0362875560e-01     2     1     2     1
-7.1425401300e-02     2     1     2     2
 1.1652738060e-01     2     2     1     1
-7.1425401300e-02     2     2     1     2
-7.1425401300e-02     2     2     2     1
 9.6597050400e-02     2     2     2     2
0.0 0 0 0 0
-3.9692925230e-01     1     1     0     0
 1.1774312860e-01     1     2     0     0
 1.1774312860e-01     2     1     0     0
-2.0200659140e-01     2     2     0     0
0.0 0 0 0 0
-3.9692925230e-01     1     1     0     0
 1.1774312860e-01     1     2     0     0
 1.1774312860e-01     2     1     0     0
-2.0200659140e-01     2     2     0     0
0.0000000000e+00 0 0 0 0
