&FCI NORB=  2,NELEC=  2,MS2=0,
 ORBSYM=1,1
 ISYM=1,
&END
 1.3185029090e-01     1     1     2     2
-1.3185029090e-01     1     2     2     1
-1.3185029090e-01     2     1     1     2
 1.3185029090e-01     2     2     1     1
0.0 0 0 0 0
 1.3185029090e-01     1     1     2     2
-1.3185029090e-01     1     2     2     1
-1.3185029090e-01     2     1     1     2
 1.3185029090e-01     2     2     1     1
0.0 0 0 0 0
 3.0286594570e-01     1     1     1     1
 1.5128854570e-01     1     1     1     2
 1.5128854570e-01     1     1     2     1
 2.4834084270e-01     1     1     2     2
 1.5128854570e-01     1     2     1     1
 1.1649055180e-01     1     2     1     2
 1.1649055180e-01     1     2     2     1
 1.4122209000e-01     1     2     2     2
 1.5128854570e-01     2     1     1     1
 1.1649055180e-01     2     1     1     2
 1.1649055180e-01     2     1     2     1
 1.4122209000e-01     2     1     2     2
 2.4834084270e-01     2     2     1     1
 1.4122209000e-01     2     2     1     2
 1.4122209000e-01     2     2     2     1
 2.2393831170e-01     2     2     2     2
0.0 0 0 0 0
-6.0909361020e-01     1     1     0     0
-1.5128796040e-01     1     2     0     0
-1.5128796040e-01     2     1     0     0
-1.0671940510e-01     2     2     0     0
0.0 0 0 0 0
-6.0909361020e-01     1     1     0     0
-1.5128796040e-01     1     2     0     0
-1.5128796040e-01     2     1     0     0
-1.0671940510e-01     2     2     0     0
0.0000000000e+00 0 0 0 0
