&FCI NORB=  2,NELEC=  2,MS2=0,
 ORBSYM=1,1
 ISYM=1,
&END
 1.3670168380e-01     1     1     2     2
-1.3670168380e-01     1     2     2     1
-1.3670168380e-01     2     1     1     2
 1.3670168380e-01     2     2     1     1
0.0 0 0 0 0
 1.3670168380e-01     1     1     2     2
-1.3670168380e-01     1     2     2     1
-1.3670168380e-01     2     1     1     2
 1.3670168380e-01     2     2     1     1
0.0 0 0 0 0
 3.1378966620e-01     1     1     1     1
 1.5541065990e-01     1     1     1     2
 1.5541065990e-01     1     1     2     1
 2.5480770630e-01     1     1     2     2
 1.5541065990e-01     1     2     1     1
 1.1810602250e-01     1     2     1     2
 1.1810602250e-01     1     2     2     1
 1.4252034490e-01     1     2     2     2
 1.5541065990e-01     2     1     1     1
 1.1810602250e-01     2     1     1     2
 1.1810602250e-01     2     1     2     1
 1.4252034490e-01     2     1     2     2
 2.5480770630e-01     2     2     1     1
 1.4252034490e-01     2     2     1     2
 1.4252034490e-01     2     2     2     1
 2.2599242880e-01     2     2     2     2
0.0 0 0 0 0
-6.2397754740e-01     1     1     0     0
-1.5540984660e-01     1     2     0     0
-1.5540984660e-01     2     1     0     0
-1.0839577320e-01     2     2     0     0
0.0 0 0 0 0
-6.2397754740e-01     1     1     0     0
-1.5540984660e-01     1     2     0     0
-1.5540984660e-01     2     1     0     0
-1.0839577320e-01     2     2     0     0
0.0000000000e+00 0 0 0 0
