&FCI NORB=  2,NELEC=  2,MS2=0,
 ORBSYM=1,1
 ISYM=1,
&END
 6.7819487700e-02     1     1     2     2
-6.7819487700e-02     1     2     2     1
-6.7819487700e-02     2     1     1     2
 6.7819487700e-02     2     2     1     1
0.0 0 0 0 0
 6.7819487700e-02     1     1     2     2
-6.7819487700e-02     1     2     2     1
-6.7819487700e-02     2     1     1     2
 6.7819487700e-02     2     2     1     1
0.0 0 0 0 0
 2.1677875510e-01     1     1     1     1
-1.1713052890e-01     1     1     1     2
-1.1713052890e-01     1     1     2     1
 1.7859314470e-01     1     1     2     2
-1.1713052890e-01     1     2     1     1
 1.1077365700e-01     1     2     1     2
 1.1077365700e-01     1     2     2     1
-9.9666265300e-02     1     2     2     2
-1.1713052890e-01     2     1     1     1
 1.1077365700e-01     2     1     1     2
 1.1077365700e-01     2     1     2     1
-9.9666265300e-02     2     1     2     2
 1.7859314470e-01     2     2     1     1
-9.9666265300e-02     2     2     1     2
-9.9666265300e-02     2     2     2     1
 1.6855254490e-01     2     2     2     2
0.0 0 0 0 0
-4.6922106540e-01     1     1     0     0
 1.1713200950e-01     1     2     0     0
 1.1713200950e-01     2     1     0     0
-1.9124180730e-01     2     2     0     0
0.0 0 0 0 0
-4.6922106540e-01     1     1     0     0
 1.1713200950e-01     1     2     0     0
 1.1713200950e-01     2     1     0     0
-1.9124180730e-01     2     2     0     0
0.0000000000e+00 0 0 0 0
