&FCI NORB=  2,NELEC=  2,MS2=0,
 ORBSYM=1,1
 ISYM=1,
&END
-4.7521076300e-02     1     1     2     2
 4.7521076300e-02     1     2     2     1
 4.7521076300e-02     2     1     1     2
-4.7521076300e-02     2     2     1     1
0.0 0 0 0 0
-4.7521076300e-02     1     1     2     2
 4.7521076300e-02     1     2     2     1
 4.7521076300e-02     2     1     1     2
-4.7521076300e-02     2     2     1     1
0.0 0 0 0 0
 1.5970298030e-01     1     1     1     1
-1.1747964410e-01     1     1     1     2
-1.1747964410e-01     1     1     2     1
 3.9744452500e-02     1     1     2     2
-1.1747964410e-01     1     2     1     1
 8.7265528800e-02     1     2     1     2
 8.7265528800e-02     1     2     2     1
-3.1953209900e-02     1     2     2     2
-1.1747964410e-01     2     1     1     1
 8.7265528800e-02     2     1     1     2
 8.7265528800e-02     2     1     2     1
-3.1953209900e-02     2     1     2     2
 3.9744452500e-02     2     2     1     1
-3.1953209900e-02     2     2     1     2
-3.1953209900e-02     2     2     2     1
 2.5663384500e-02     2     2     2     2
0.0 0 0 0 0
-3.4421730690e-01     1     1     0     0
 1.1748765000e-01     1     2     0     0
 1.1748765000e-01     2     1     0     0
-1.7459176850e-01     2     2     0     0
0.0 0 0 0 0
-3.4421730690e-01     1     1     0     0
 1.1748765000e-01     1     2     0     0
 1.1748765000e-01     2     1     0     0
-1.7459176850e-01     2     2     0     0
0.0000000000e+00 0 0 0 0
