&FCI NORB=  2,NELEC=  2,MS2=0,
 ORBSYM=1,1
 ISYM=1,
&END
 1.1831728170e-01     1     1     2     2
-1.1831728170e-01     1     2     2     1
-1.1831728170e-01     2     1     1     2
 1.1831728170e-01     2     2     1     1
0.0 0 0 0 0
 1.1831728170e-01     1     1     2     2
-1.1831728170e-01     1     2     2     1
-1.1831728170e-01     2     1     1     2
 1.1831728170e-01     2     2     1     1
0.0 0 0 0 0
 2.7323736210e-01     1     1     1     1
 1.3653118240e-01     1     1     1     2
 1.3653118240e-01     1     1     2     1
 2.3309668490e-01     1     1     2     2
 1.3653118240e-01     1     2     1     1
 1.1477940320e-01     1     2     1     2
 1.1477940320e-01     1     2     2     1
 1.3434510570e-01     1     2     2     2
 1.3653118240e-01     2     1     1     1
 1.1477940320e-01     2     1     1     2
 1.1477940320e-01     2     1     2     1
 1.3434510570e-01     2     1     2     2
 2.3309668490e-01     2     2     1     1
 1.3434510570e-01     2     2     1     2
 1.3434510570e-01     2     2     2     1
 2.2266067390e-01     2     2     2     2
0.0 0 0 0 0
-5.6510718260e-01     1     1     0     0
-1.3653103790e-01     1     2     0     0
-1.3653103790e-01     2     1     0     0
-1.2325773730e-01     2     2     0     0
0.0 0 0 0 0
-5.6510718260e-01     1     1     0     0
-1.3653103790e-01     1     2     0     0
-1.3653103790e-01     2     1     0     0
-1.2325773730e-01     2     2     0     0
0.0000000000e+00 0 0 0 0
