&FCI NORB=  2,NELEC=  2,MS2=0,
 ORBSYM=1,1
 ISYM=1,
&END
-7.7399501700e-02     1     1     2     2
 7.7399501700e-02     1     2     2     1
 7.7399501700e-02     2     1     1     2
-7.7399501700e-02     2     2     1     1
0.0 0 0 0 0
-7.7399501700e-02     1     1     2     2
 7.7399501700e-02     1     2     2     1
 7.7399501700e-02     2     1     1     2
-7.7399501700e-02     2     2     1     1
0.0 0 0 0 0
 1.5552785220e-01     1     1     1     1
-1.1375746430e-01     1     1     1     2
-1.1375746430e-01     1     1     2     1
 1.2794400000e-05     1     1     2     2
-1.1375746430e-01     1     2     1     1
 7.7412296100e-02     1     2     1     2
 7.7412296100e-02     1     2     2     1
-1.1984539400e-02     1     2     2     2
-1.1375746430e-01     2     1     1     1
 7.7412296100e-02     2     1     1     2
 7.7412296100e-02     2     1     2     1
-1.1984539400e-02     2     1     2     2
 1.2794400000e-05     2     2     1     1
-1.1984539400e-02     2     2     1     2
-1.1984539400e-02     2     2     2     1
 3.8538435000e-03     2     2     2     2
0.0 0 0 0 0
-3.2194470950e-01     1     1     0     0
 1.1376493830e-01     1     2     0     0
 1.1376493830e-01     2     1     0     0
-1.4585287550e-01     2     2     0     0
0.0 0 0 0 0
-3.2194470950e-01     1     1     0     0
 1.1376493830e-01     1     2     0     0
 1.1376493830e-01     2     1     0     0
-1.4585287550e-01     2     2     0     0
0.0000000000e+00 0 0 0 0
