&FCI NORB=  2,NELEC=  2,MS2=0,
 ORBSYM=1,1
 ISYM=1,
&END
 1.2895993500e-02     1     1     2     2
-1.2895993500e-02     1     2     2     1
-1.2895993500e-02     2     1     1     2
 1.2895993500e-02     2     2     1     1
0.0 0 0 0 0
 1.2895993500e-02     1     1     2     2
-1.2895993500e-02     1     2     2     1
-1.2895993500e-02     2     1     1     2
 1.2895993500e-02     2     2     1     1
0.0 0 0 0 0
 1.8067554560e-01     1     1     1     1
-1.1773801900e-01     1     1     1     2
-1.1773801900e-01     1     1     2     1
 1.1652347720e-01     1     1     2     2
-1.1773801900e-01     1     2     1     1
 1.0362748370e-01     1     2     1     2
 1.0362748370e-01     1     2     2     1
-7.1421779900e-02     1     2     2     2
-1.1773801900e-01     2     1     1     1
 1.0362748370e-01     2     1     1     2
 1.0362748370e-01     2     1     2     1
-7.1421779900e-02     2     1     2     2
 1.1652347720e-01     2     2     1     1
-7.1421779900e-02     2     2     1     2
-7.1421779900e-02     2     2     2     1
 9.6593314200e-02     2     2     2     2
0.0 0 0 0 0
-3.9692923730e-01     1     1     0     0
 1.1774222030e-01     1     2     0     0
 1.1774222030e-01     2     1     0     0
-2.0200768610e-01     2     2     0     0
0.0 0 0 0 0
-3.9692923730e-01     1     1     0     0
 1.1774222030e-01     1     2     0     0
 1.1774222030e-01     2     1     0     0
-2.0200768610e-01     2     2     0     0
0.0000000000e+00 0 0 0 0
