&FCI NORB=  2,NELEC=  2,MS2=0,
 ORBSYM=1,1
 ISYM=1,
&END
-4.7519896500e-02     1     1     2     2
 4.7519896500e-02     1     2     2     1
 4.7519896500e-02     2     1     1     2
-4.7519896500e-02     2     2     1     1
0.0 0 0 0 0
-4.7519896500e-02     1     1     2     2
 4.7519896500e-02     1     2     2     1
 4.7519896500e-02     2     1     1     2
-4.7519896500e-02     2     2     1     1
0.0 0 0 0 0
 1.5970298140e-01     1     1     1     1
 1.1748158620e-01     1     1     1     2
 1.1748158620e-01     1     1     2     1
 3.9747965800e-02     1     1     2     2
 1.1748158620e-01     1     2     1     1
 8.7267862300e-02     1     2     1     2
 8.7267862300e-02     1     2     2     1
 3.1957406900e-02     1     2     2     2
 1.1748158620e-01     2     1     1     1
 8.7267862300e-02     2     1     1     2
 8.7267862300e-02     2     1     2     1
 3.1957406900e-02     2     1     2     2
 3.9747965800e-02     2     2     1     1
 3.1957406900e-02     2     2     1     2
 3.1957406900e-02     2     2     2     1
 2.5666216700e-02     2     2     2     2
0.0 0 0 0 0
-3.4421730750e-01     1     1     0     0
-1.1748959310e-01     1     2     0     0
-1.1748959310e-01     2     1     0     0
-1.7459201270e-01     2     2     0     0
0.0 0 0 0 0
-3.4421730750e-01     1     1     0     0
-1.1748959310e-01     1     2     0     0
-1.1748959310e-01     2     1     0     0
-1.7459201270e-01     2     2     0     0
0.0000000000e+00 0 0 0 0
