&FCI NORB=  9,NELEC=  2,MS2=0,
 ORBSYM=1,1,1,1,1,1,1,1,1
 ISYM=1,
&END
-6.9095499000e-02     1     1     2     2
 3.6087747800e-02     1     1     2     3
 2.9346962000e-03     1     1     2     4
-3.1830700000e-05     1     1     2     5
-7.0428000000e-06     1     1     2     6
 2.3089152000e-03     1     1     2     7
 4.5866371000e-03     1     1     2     8
-1.2380900000e-05     1     1     2     9
 3.6087747800e-02     1     1     3     2
 6.7137262500e-02     1     1     3     3
-1.0788666000e-03     1     1     3     4
 1.3651800000e-05     1     1     3     5
 2.4019000000e-06     1     1     3     6
-6.7631760600e-02     1     1     3     7
 4.6583287300e-02     1     1     3     8
-8.9558800000e-05     1     1     3     9
 2.9346962000e-03     1     1     4     2
-1.0788666000e-03     1     1     4     3
 8.7229879500e-02     1     1     4     4
 4.3851100000e-05     1     1     4     5
 9.7318000000e-06     1     1     4     6
-4.0760228200e-02     1     1     4     7
-5.7867246100e-02     1     1     4     8
-3.6034670000e-04     1     1     4     9
-3.1830700000e-05     1     1     5     2
 1.3651800000e-05     1     1     5     3
 4.3851100000e-05     1     1     5     4
 9.3105804400e-02     1     1     5     5
-5.4500000000e-08     1     1     5     6
 4.1443390000e-04     1     1     5     7
 3.5367590000e-04     1     1     5     8
-3.4574234400e-02     1     1     5     9
-7.0428000000e-06     1     1     6     2
 2.4019000000e-06     1     1     6     3
 9.7318000000e-06     1     1     6     4
-5.4500000000e-08     1     1     6     5
 9.3100964400e-02     1     1     6     6
 8.6930300000e-05     1     1     6     7
 1.0276980000e-04     1     1     6     8
-5.9625184700e-02     1     1     6     9
 2.3089152000e-03     1     1     7     2
-6.7631760600e-02     1     1     7     3
-4.0760228200e-02     1     1     7     4
 4.1443390000e-04     1     1     7     5
 8.6930300000e-05     1     1     7     6
 1.2565929450e-01     1     1     7     7
-4.6694704000e-03     1     1     7     8
 2.0041400000e-05     1     1     7     9
 4.5866371000e-03     1     1     8     2
 4.6583287300e-02     1     1     8     3
-5.7867246100e-02     1     1     8     4
 3.5367590000e-04     1     1     8     5
 1.0276980000e-04     1     1     8     6
-4.6694704000e-03     1     1     8     7
 1.3603659660e-01     1     1     8     8
 1.0829600000e-05     1     1     8     9
-1.2380900000e-05     1     1     9     2
-8.9558800000e-05     1     1     9     3
-3.6034670000e-04     1     1     9     4
-3.4574234400e-02     1     1     9     5
-5.9625184700e-02     1     1     9     6
 2.0041400000e-05     1     1     9     7
 1.0829600000e-05     1     1     9     8
 1.4111072720e-01     1     1     9     9
 6.9095499000e-02     1     2     2     1
-2.0214442000e-02     1     2     2     3
-9.7896210000e-03     1     2     2     4
 1.0734810000e-04     1     2     2     5
 2.3642400000e-05     1     2     2     6
-2.1622414000e-03     1     2     2     7
-3.4735446000e-03     1     2     2     8
 1.0169800000e-05     1     2     2     9
-3.6087747800e-02     1     2     3     1
-6.4618490100e-02     1     2     3     3
 4.2325328000e-03     1     2     3     4
-4.6557600000e-05     1     2     3     5
-9.9051000000e-06     1     2     3     6
 4.3049979400e-02     1     2     3     7
-2.1629348500e-02     1     2     3     8
 3.7003000000e-05     1     2     3     9
-2.9346962000e-03     1     2     4     1
 5.5818303000e-03     1     2     4     3
-8.4481208300e-02     1     2     4     4
-3.1525000000e-05     1     2     4     5
-6.9909000000e-06     1     2     4     6
 2.4429964500e-02     1     2     4     7
 3.5315867800e-02     1     2     4     8
 2.0950790000e-04     1     2     4     9
 3.1830700000e-05     1     2     5     1
-6.1381600000e-05     1     2     5     3
-3.1899800000e-05     1     2     5     4
-8.7776713600e-02     1     2     5     5
 6.8800000000e-08     1     2     5     6
-2.4904200000e-04     1     2     5     7
-2.2401130000e-04     1     2     5     8
 2.0428723300e-02     1     2     5     9
 7.0428000000e-06     1     2     6     1
-1.3218300000e-05     1     2     6     3
-7.0310000000e-06     1     2     6     4
 3.4500000000e-08     1     2     6     5
-8.7774448000e-02     1     2     6     6
-5.2291500000e-05     1     2     6     7
-6.3982900000e-05     1     2     6     8
 3.5230050900e-02     1     2     6     9
-2.3089152000e-03     1     2     7     1
 3.6862639600e-02     1     2     7     3
 1.8282150400e-02     1     2     7     4
-1.8573210000e-04     1     2     7     5
-3.8860300000e-05     1     2     7     6
-9.9382862300e-02     1     2     7     7
 4.0667812000e-03     1     2     7     8
-1.6788900000e-05     1     2     7     9
-4.5866371000e-03     1     2     8     1
-1.8223984500e-02     1     2     8     3
 2.6817078400e-02     1     2     8     4
-1.6585940000e-04     1     2     8     5
-4.8078000000e-05     1     2     8     6
 4.9329143000e-03     1     2     8     7
-1.0917912000e-01     1     2     8     8
-3.7974000000e-06     1     2     8     9
 1.2380900000e-05     1     2     9     1
 3.0743800000e-05     1     2     9     3
 1.6666790000e-04     1     2     9     4
 1.6046212400e-02     1     2     9     5
 2.7673322400e-02     1     2     9     6
-1.9143900000e-05     1     2     9     7
-3.4658000000e-06     1     2     9     8
-1.1118980340e-01     1     2     9     9
-3.6087747800e-02     1     3     2     1
 2.0214442000e-02     1     3     2     2
-1.3492975000e-03     1     3     2     4
 1.4824000000e-05     1     3     2     5
 3.3132000000e-06     1     3     2     6
 6.1873398000e-03     1     3     2     7
-3.4053640000e-03     1     3     2     8
 6.2592000000e-06     1     3     2     9
-6.7137262500e-02     1     3     3     1
 6.4618490100e-02     1     3     3     2
-3.7981455000e-03     1     3     3     4
 4.0765200000e-05     1     3     3     5
 9.2264000000e-06     1     3     3     6
 3.1921206000e-02     1     3     3     7
-2.6344908300e-02     1     3     3     8
 5.3782700000e-05     1     3     3     9
 1.0788666000e-03     1     3     4     1
-5.5818303000e-03     1     3     4     2
-6.1913002200e-02     1     3     4     4
-9.0413000000e-06     1     3     4     5
-1.9992000000e-06     1     3     4     6
 2.2708216900e-02     1     3     4     7
 3.5182084400e-02     1     3     4     8
 2.2883530000e-04     1     3     4     9
-1.3651800000e-05     1     3     5     1
 6.1381600000e-05     1     3     5     2
-8.8001000000e-06     1     3     5     4
-6.3553932300e-02     1     3     5     5
 3.6800000000e-08     1     3     5     6
-2.2826770000e-04     1     3     5     7
-2.1110760000e-04     1     3     5     8
 2.1589735800e-02     1     3     5     9
-2.4019000000e-06     1     3     6     1
 1.3218300000e-05     1     3     6     2
-1.9717000000e-06     1     3     6     4
-2.5300000000e-08     1     3     6     5
-6.3552357900e-02     1     3     6     6
-4.7616200000e-05     1     3     6     7
-6.1825500000e-05     1     3     6     8
 3.7232409400e-02     1     3     6     9
 6.7631760600e-02     1     3     7     1
-3.6862639600e-02     1     3     7     2
 7.7164084000e-03     1     3     7     4
-7.9054600000e-05     1     3     7     5
-1.6539400000e-05     1     3     7     6
-6.3435767100e-02     1     3     7     7
 1.3584666000e-03     1     3     7     8
-6.6281000000e-06     1     3     7     9
-4.6583287300e-02     1     3     8     1
 1.8223984500e-02     1     3     8     2
 9.7227010000e-03     1     3     8     4
-5.8216300000e-05     1     3     8     5
-1.7150300000e-05     1     3     8     6
 1.1396806000e-03     1     3     8     7
-6.9587310300e-02     1     3     8     8
-2.2510000000e-06     1     3     8     9
 8.9558800000e-05     1     3     9     1
-3.0743800000e-05     1     3     9     2
 6.1863100000e-05     1     3     9     4
 5.8609763000e-03     1     3     9     5
 1.0110977400e-02     1     3     9     6
-5.8894000000e-06     1     3     9     7
-2.1862000000e-06     1     3     9     8
-7.1171881300e-02     1     3     9     9
-2.9346962000e-03     1     4     2     1
 9.7896210000e-03     1     4     2     2
 1.3492975000e-03     1     4     2     3
 3.7480000000e-07     1     4     2     5
 4.0100000000e-08     1     4     2     6
 6.1478141000e-03     1     4     2     7
 8.4987894000e-03     1     4     2     8
 4.2840000000e-05     1     4     2     9
 1.0788666000e-03     1     4     3     1
-4.2325328000e-03     1     4     3     2
 3.7981455000e-03     1     4     3     3
-2.4120000000e-07     1     4     3     5
-2.7500000000e-08     1     4     3     6
 1.4991808500e-02     1     4     3     7
 2.5459383400e-02     1     4     3     8
 1.6697220000e-04     1     4     3     9
-8.7229879500e-02     1     4     4     1
 8.4481208300e-02     1     4     4     2
 6.1913002200e-02     1     4     4     3
 6.2624900000e-05     1     4     4     5
 1.3737000000e-05     1     4     4     6
-1.5118624800e-02     1     4     4     7
 9.6394204000e-03     1     4     4     8
 2.4256600000e-05     1     4     4     9
-4.3851100000e-05     1     4     5     1
 3.1899800000e-05     1     4     5     2
 8.8001000000e-06     1     4     5     3
 5.6760795000e-03     1     4     5     5
-1.7000000000e-09     1     4     5     6
-3.2997600000e-05     1     4     5     7
-3.2578100000e-05     1     4     5     8
 1.3453676000e-03     1     4     5     9
-9.7318000000e-06     1     4     6     1
 7.0310000000e-06     1     4     6     2
 1.9717000000e-06     1     4     6     3
-4.9000000000e-09     1     4     6     5
 5.6760709000e-03     1     4     6     6
-7.2681000000e-06     1     4     6     7
-8.0186000000e-06     1     4     6     8
 2.3196035000e-03     1     4     6     9
 4.0760228200e-02     1     4     7     1
-1.8282150400e-02     1     4     7     2
-7.7164084000e-03     1     4     7     3
-4.9000000000e-09     1     4     7     5
 1.5900000000e-08     1     4     7     6
 1.4865868300e-02     1     4     7     7
-7.7458376000e-03     1     4     7     8
-1.8032600000e-05     1     4     7     9
 5.7867246100e-02     1     4     8     1
-2.6817078400e-02     1     4     8     2
-9.7227010000e-03     1     4     8     3
 3.0500000000e-08     1     4     8     5
-1.5000000000e-09     1     4     8     6
 1.3634123800e-02     1     4     8     7
-1.2483147000e-03     1     4     8     8
 2.2568900000e-05     1     4     8     9
 3.6034670000e-04     1     4     9     1
-1.6666790000e-04     1     4     9     2
-6.1863100000e-05     1     4     9     3
 3.2797500000e-05     1     4     9     5
 5.6879800000e-05     1     4     9     6
 7.5174700000e-05     1     4     9     7
-4.8171300000e-05     1     4     9     8
 7.1786562000e-03     1     4     9     9
 3.1830700000e-05     1     5     2     1
-1.0734810000e-04     1     5     2     2
-1.4824000000e-05     1     5     2     3
-3.7480000000e-07     1     5     2     4
 3.4300000000e-08     1     5     2     6
-6.3309900000e-05     1     5     2     7
-5.8151900000e-05     1     5     2     8
 4.3825109000e-03     1     5     2     9
-1.3651800000e-05     1     5     3     1
 4.6557600000e-05     1     5     3     2
-4.0765200000e-05     1     5     3     3
 2.4120000000e-07     1     5     3     4
 6.2100000000e-08     1     5     3     6
-1.4921310000e-04     1     5     3     7
-1.5289130000e-04     1     5     3     8
 1.5728759500e-02     1     5     3     9
-4.3851100000e-05     1     5     4     1
 3.1525000000e-05     1     5     4     2
 9.0413000000e-06     1     5     4     3
-6.2624900000e-05     1     5     4     4
 3.2000000000e-09     1     5     4     6
-3.2992700000e-05     1     5     4     7
-3.2608600000e-05     1     5     4     8
 1.3125701000e-03     1     5     4     9
-9.3105804400e-02     1     5     5     1
 8.7776713600e-02     1     5     5     2
 6.3553932300e-02     1     5     5     3
-5.6760795000e-03     1     5     5     4
 1.3695400000e-05     1     5     5     6
-1.8284414500e-02     1     5     5     7
 6.8661899000e-03     1     5     5     8
-4.0088400000e-05     1     5     5     9
 5.4500000000e-08     1     5     6     1
-3.4500000000e-08     1     5     6     2
 2.5300000000e-08     1     5     6     3
 4.9000000000e-09     1     5     6     4
-6.2473800000e-05     1     5     6     6
 2.0600000000e-08     1     5     6     7
-5.4460000000e-07     1     5     6     8
-2.7744400000e-05     1     5     6     9
-4.1443390000e-04     1     5     7     1
 1.8573210000e-04     1     5     7     2
 7.9054600000e-05     1     5     7     3
 4.9000000000e-09     1     5     7     4
 4.6400000000e-08     1     5     7     6
-1.5692210000e-04     1     5     7     7
 6.4130200000e-05     1     5     7     8
-2.2810634000e-03     1     5     7     9
-3.5367590000e-04     1     5     8     1
 1.6585940000e-04     1     5     8     2
 5.8216300000e-05     1     5     8     3
-3.0500000000e-08     1     5     8     4
-3.3200000000e-08     1     5     8     6
-8.8428300000e-05     1     5     8     7
-2.3320300000e-05     1     5     8     8
 7.4238020000e-04     1     5     8     9
 3.4574234400e-02     1     5     9     1
-1.6046212400e-02     1     5     9     2
-5.8609763000e-03     1     5     9     3
-3.2797500000e-05     1     5     9     4
-6.9350000000e-07     1     5     9     6
 7.3724297000e-03     1     5     9     7
-4.6808112000e-03     1     5     9     8
-7.0106500000e-05     1     5     9     9
 7.0428000000e-06     1     6     2     1
-2.3642400000e-05     1     6     2     2
-3.3132000000e-06     1     6     2     3
-4.0100000000e-08     1     6     2     4
-3.4300000000e-08     1     6     2     5
-1.3431200000e-05     1     6     2     7
-1.5904900000e-05     1     6     2     8
 7.5567285000e-03     1     6     2     9
-2.4019000000e-06     1     6     3     1
 9.9051000000e-06     1     6     3     2
-9.2264000000e-06     1     6     3     3
 2.7500000000e-08     1     6     3     4
-6.2100000000e-08     1     6     3     5
-3.1076800000e-05     1     6     3     7
-4.4675200000e-05     1     6     3     8
 2.7121432000e-02     1     6     3     9
-9.7318000000e-06     1     6     4     1
 6.9909000000e-06     1     6     4     2
 1.9992000000e-06     1     6     4     3
-1.3737000000e-05     1     6     4     4
-3.2000000000e-09     1     6     4     5
-7.2840000000e-06     1     6     4     7
-8.0171000000e-06     1     6     4     8
 2.2627237000e-03     1     6     4     9
 5.4500000000e-08     1     6     5     1
-6.8800000000e-08     1     6     5     2
-3.6800000000e-08     1     6     5     3
 1.7000000000e-09     1     6     5     4
-1.3695400000e-05     1     6     5     5
-2.5800000000e-08     1     6     5     7
-5.1140000000e-07     1     6     5     8
-2.7050900000e-05     1     6     5     9
-9.3100964400e-02     1     6     6     1
 8.7774448000e-02     1     6     6     2
 6.3552357900e-02     1     6     6     3
-5.6760709000e-03     1     6     6     4
 6.2473800000e-05     1     6     6     5
-1.8283335100e-02     1     6     6     7
 6.8666779000e-03     1     6     6     8
-2.1936600000e-05     1     6     6     9
-8.6930300000e-05     1     6     7     1
 3.8860300000e-05     1     6     7     2
 1.6539400000e-05     1     6     7     3
-1.5900000000e-08     1     6     7     4
-4.6400000000e-08     1     6     7     5
-3.3745600000e-05     1     6     7     7
 1.4688600000e-05     1     6     7     8
-3.9312165000e-03     1     6     7     9
-1.0276980000e-04     1     6     8     1
 4.8078000000e-05     1     6     8     2
 1.7150300000e-05     1     6     8     3
 1.5000000000e-09     1     6     8     4
 3.3200000000e-08     1     6     8     5
-2.4974800000e-05     1     6     8     7
-2.2047000000e-06     1     6     8     8
 1.2798818000e-03     1     6     8     9
 5.9625184700e-02     1     6     9     1
-2.7673322400e-02     1     6     9     2
-1.0110977400e-02     1     6     9     3
-5.6879800000e-05     1     6     9     4
 6.9350000000e-07     1     6     9     5
 1.2715009100e-02     1     6     9     7
-8.0728760000e-03     1     6     9     8
-3.6735000000e-06     1     6     9     9
-2.3089152000e-03     1     7     2     1
 2.1622414000e-03     1     7     2     2
-6.1873398000e-03     1     7     2     3
-6.1478141000e-03     1     7     2     4
 6.3309900000e-05     1     7     2     5
 1.3431200000e-05     1     7     2     6
-8.6613310000e-04     1     7     2     8
 2.3550000000e-06     1     7     2     9
 6.7631760600e-02     1     7     3     1
-4.3049979400e-02     1     7     3     2
-3.1921206000e-02     1     7     3     3
-1.4991808500e-02     1     7     3     4
 1.4921310000e-04     1     7     3     5
 3.1076800000e-05     1     7     3     6
 2.1878600000e-04     1     7     3     8
-7.3870000000e-07     1     7     3     9
 4.0760228200e-02     1     7     4     1
-2.4429964500e-02     1     7     4     2
-2.2708216900e-02     1     7     4     3
 1.5118624800e-02     1     7     4     4
 3.2992700000e-05     1     7     4     5
 7.2840000000e-06     1     7     4     6
-2.1379961400e-02     1     7     4     8
-9.3207300000e-05     1     7     4     9
-4.1443390000e-04     1     7     5     1
 2.4904200000e-04     1     7     5     2
 2.2826770000e-04     1     7     5     3
 3.2997600000e-05     1     7     5     4
 1.8284414500e-02     1     7     5     5
 2.5800000000e-08     1     7     5     6
 1.5255850000e-04     1     7     5     8
-9.6534931000e-03     1     7     5     9
-8.6930300000e-05     1     7     6     1
 5.2291500000e-05     1     7     6     2
 4.7616200000e-05     1     7     6     3
 7.2681000000e-06     1     7     6     4
-2.0600000000e-08     1     7     6     5
 1.8283335100e-02     1     7     6     6
 3.9663400000e-05     1     7     6     8
-1.6646225600e-02     1     7     6     9
-1.2565929450e-01     1     7     7     1
 9.9382862300e-02     1     7     7     2
 6.3435767100e-02     1     7     7     3
-1.4865868300e-02     1     7     7     4
 1.5692210000e-04     1     7     7     5
 3.3745600000e-05     1     7     7     6
 4.0075773000e-03     1     7     7     8
-3.6159000000e-06     1     7     7     9
 4.6694704000e-03     1     7     8     1
-4.9329143000e-03     1     7     8     2
-1.1396806000e-03     1     7     8     3
-1.3634123800e-02     1     7     8     4
 8.8428300000e-05     1     7     8     5
 2.4974800000e-05     1     7     8     6
 1.1993222800e-02     1     7     8     8
 1.7361000000e-06     1     7     8     9
-2.0041400000e-05     1     7     9     1
 1.9143900000e-05     1     7     9     2
 5.8894000000e-06     1     7     9     3
-7.5174700000e-05     1     7     9     4
-7.3724297000e-03     1     7     9     5
-1.2715009100e-02     1     7     9     6
 2.4857000000e-06     1     7     9     8
 1.2029710300e-02     1     7     9     9
-4.5866371000e-03     1     8     2     1
 3.4735446000e-03     1     8     2     2
 3.4053640000e-03     1     8     2     3
-8.4987894000e-03     1     8     2     4
 5.8151900000e-05     1     8     2     5
 1.5904900000e-05     1     8     2     6
 8.6613310000e-04     1     8     2     7
-3.3160000000e-07     1     8     2     9
-4.6583287300e-02     1     8     3     1
 2.1629348500e-02     1     8     3     2
 2.6344908300e-02     1     8     3     3
-2.5459383400e-02     1     8     3     4
 1.5289130000e-04     1     8     3     5
 4.4675200000e-05     1     8     3     6
-2.1878600000e-04     1     8     3     7
-6.4800000000e-08     1     8     3     9
 5.7867246100e-02     1     8     4     1
-3.5315867800e-02     1     8     4     2
-3.5182084400e-02     1     8     4     3
-9.6394204000e-03     1     8     4     4
 3.2608600000e-05     1     8     4     5
 8.0171000000e-06     1     8     4     6
 2.1379961400e-02     1     8     4     7
 7.0740200000e-05     1     8     4     9
-3.5367590000e-04     1     8     5     1
 2.2401130000e-04     1     8     5     2
 2.1110760000e-04     1     8     5     3
 3.2578100000e-05     1     8     5     4
-6.8661899000e-03     1     8     5     5
 5.1140000000e-07     1     8     5     6
-1.5255850000e-04     1     8     5     7
 5.4231914000e-03     1     8     5     9
-1.0276980000e-04     1     8     6     1
 6.3982900000e-05     1     8     6     2
 6.1825500000e-05     1     8     6     3
 8.0186000000e-06     1     8     6     4
 5.4460000000e-07     1     8     6     5
-6.8666779000e-03     1     8     6     6
-3.9663400000e-05     1     8     6     7
 9.3527578000e-03     1     8     6     9
 4.6694704000e-03     1     8     7     1
-4.0667812000e-03     1     8     7     2
-1.3584666000e-03     1     8     7     3
 7.7458376000e-03     1     8     7     4
-6.4130200000e-05     1     8     7     5
-1.4688600000e-05     1     8     7     6
-4.0075773000e-03     1     8     7     7
-7.4960000000e-07     1     8     7     9
-1.3603659660e-01     1     8     8     1
 1.0917912000e-01     1     8     8     2
 6.9587310300e-02     1     8     8     3
 1.2483147000e-03     1     8     8     4
 2.3320300000e-05     1     8     8     5
 2.2047000000e-06     1     8     8     6
-1.1993222800e-02     1     8     8     7
-7.3323000000e-06     1     8     8     9
-1.0829600000e-05     1     8     9     1
 3.4658000000e-06     1     8     9     2
 2.1862000000e-06     1     8     9     3
 4.8171300000e-05     1     8     9     4
 4.6808112000e-03     1     8     9     5
 8.0728760000e-03     1     8     9     6
-2.4857000000e-06     1     8     9     7
-4.8292470000e-03     1     8     9     9
 1.2380900000e-05     1     9     2     1
-1.0169800000e-05     1     9     2     2
-6.2592000000e-06     1     9     2     3
-4.2840000000e-05     1     9     2     4
-4.3825109000e-03     1     9     2     5
-7.5567285000e-03     1     9     2     6
-2.3550000000e-06     1     9     2     7
 3.3160000000e-07     1     9     2     8
 8.9558800000e-05     1     9     3     1
-3.7003000000e-05     1     9     3     2
-5.3782700000e-05     1     9     3     3
-1.6697220000e-04     1     9     3     4
-1.5728759500e-02     1     9     3     5
-2.7121432000e-02     1     9     3     6
 7.3870000000e-07     1     9     3     7
 6.4800000000e-08     1     9     3     8
 3.6034670000e-04     1     9     4     1
-2.0950790000e-04     1     9     4     2
-2.2883530000e-04     1     9     4     3
-2.4256600000e-05     1     9     4     4
-1.3125701000e-03     1     9     4     5
-2.2627237000e-03     1     9     4     6
 9.3207300000e-05     1     9     4     7
-7.0740200000e-05     1     9     4     8
 3.4574234400e-02     1     9     5     1
-2.0428723300e-02     1     9     5     2
-2.1589735800e-02     1     9     5     3
-1.3453676000e-03     1     9     5     4
 4.0088400000e-05     1     9     5     5
 2.7050900000e-05     1     9     5     6
 9.6534931000e-03     1     9     5     7
-5.4231914000e-03     1     9     5     8
 5.9625184700e-02     1     9     6     1
-3.5230050900e-02     1     9     6     2
-3.7232409400e-02     1     9     6     3
-2.3196035000e-03     1     9     6     4
 2.7744400000e-05     1     9     6     5
 2.1936600000e-05     1     9     6     6
 1.6646225600e-02     1     9     6     7
-9.3527578000e-03     1     9     6     8
-2.0041400000e-05     1     9     7     1
 1.6788900000e-05     1     9     7     2
 6.6281000000e-06     1     9     7     3
 1.8032600000e-05     1     9     7     4
 2.2810634000e-03     1     9     7     5
 3.9312165000e-03     1     9     7     6
 3.6159000000e-06     1     9     7     7
 7.4960000000e-07     1     9     7     8
-1.0829600000e-05     1     9     8     1
 3.7974000000e-06     1     9     8     2
 2.2510000000e-06     1     9     8     3
-2.2568900000e-05     1     9     8     4
-7.4238020000e-04     1     9     8     5
-1.2798818000e-03     1     9     8     6
-1.7361000000e-06     1     9     8     7
 7.3323000000e-06     1     9     8     8
-1.4111072720e-01     1     9     9     1
 1.1118980340e-01     1     9     9     2
 7.1171881300e-02     1     9     9     3
-7.1786562000e-03     1     9     9     4
 7.0106500000e-05     1     9     9     5
 3.6735000000e-06     1     9     9     6
-1.2029710300e-02     1     9     9     7
 4.8292470000e-03     1     9     9     8
 6.9095499000e-02     2     1     1     2
-3.6087747800e-02     2     1     1     3
-2.9346962000e-03     2     1     1     4
 3.1830700000e-05     2     1     1     5
 7.0428000000e-06     2     1     1     6
-2.3089152000e-03     2     1     1     7
-4.5866371000e-03     2     1     1     8
 1.2380900000e-05     2     1     1     9
-2.0214442000e-02     2     1     3     2
-6.4618490100e-02     2     1     3     3
 5.5818303000e-03     2     1     3     4
-6.1381600000e-05     2     1     3     5
-1.3218300000e-05     2     1     3     6
 3.6862639600e-02     2     1     3     7
-1.8223984500e-02     2     1     3     8
 3.0743800000e-05     2     1     3     9
-9.7896210000e-03     2     1     4     2
 4.2325328000e-03     2     1     4     3
-8.4481208300e-02     2     1     4     4
-3.1899800000e-05     2     1     4     5
-7.0310000000e-06     2     1     4     6
 1.8282150400e-02     2     1     4     7
 2.6817078400e-02     2     1     4     8
 1.6666790000e-04     2     1     4     9
 1.0734810000e-04     2     1     5     2
-4.6557600000e-05     2     1     5     3
-3.1525000000e-05     2     1     5     4
-8.7776713600e-02     2     1     5     5
 3.4500000000e-08     2     1     5     6
-1.8573210000e-04     2     1     5     7
-1.6585940000e-04     2     1     5     8
 1.6046212400e-02     2     1     5     9
 2.3642400000e-05     2     1     6     2
-9.9051000000e-06     2     1     6     3
-6.9909000000e-06     2     1     6     4
 6.8800000000e-08     2     1     6     5
-8.7774448000e-02     2     1     6     6
-3.8860300000e-05     2     1     6     7
-4.8078000000e-05     2     1     6     8
 2.7673322400e-02     2     1     6     9
-2.1622414000e-03     2     1     7     2
 4.3049979400e-02     2     1     7     3
 2.4429964500e-02     2     1     7     4
-2.4904200000e-04     2     1     7     5
-5.2291500000e-05     2     1     7     6
-9.9382862300e-02     2     1     7     7
 4.9329143000e-03     2     1     7     8
-1.9143900000e-05     2     1     7     9
-3.4735446000e-03     2     1     8     2
-2.1629348500e-02     2     1     8     3
 3.5315867800e-02     2     1     8     4
-2.2401130000e-04     2     1     8     5
-6.3982900000e-05     2     1     8     6
 4.0667812000e-03     2     1     8     7
-1.0917912000e-01     2     1     8     8
-3.4658000000e-06     2     1     8     9
 1.0169800000e-05     2     1     9     2
 3.7003000000e-05     2     1     9     3
 2.0950790000e-04     2     1     9     4
 2.0428723300e-02     2     1     9     5
 3.5230050900e-02     2     1     9     6
-1.6788900000e-05     2     1     9     7
-3.7974000000e-06     2     1     9     8
-1.1118980340e-01     2     1     9     9
-6.9095499000e-02     2     2     1     1
 2.0214442000e-02     2     2     1     3
 9.7896210000e-03     2     2     1     4
-1.0734810000e-04     2     2     1     5
-2.3642400000e-05     2     2     1     6
 2.1622414000e-03     2     2     1     7
 3.4735446000e-03     2     2     1     8
-1.0169800000e-05     2     2     1     9
 2.0214442000e-02     2     2     3     1
-4.6463150900e-02     2     2     3     3
-1.0685600000e-04     2     2     3     4
 1.7423000000e-06     2     2     3     5
 2.0190000000e-07     2     2     3     6
-2.0907477700e-02     2     2     3     7
 1.7356792600e-02     2     2     3     8
-3.5241300000e-05     2     2     3     9
 9.7896210000e-03     2     2     4     1
-1.0685600000e-04     2     2     4     3
-1.5363641700e-02     2     2     4     4
-2.3734600000e-05     2     2     4     5
-5.2316000000e-06     2     2     4     6
-1.1475382100e-02     2     2     4     7
-1.6269930900e-02     2     2     4     8
-1.1831040000e-04     2     2     4     9
-1.0734810000e-04     2     2     5     1
 1.7423000000e-06     2     2     5     3
-2.3734600000e-05     2     2     5     4
-1.6774957700e-02     2     2     5     5
 6.9400000000e-08     2     2     5     6
 1.1462750000e-04     2     2     5     7
 8.8676400000e-05     2     2     5     8
-1.0762012700e-02     2     2     5     9
-2.3642400000e-05     2     2     6     1
 2.0190000000e-07     2     2     6     3
-5.2316000000e-06     2     2     6     4
 6.9400000000e-08     2     2     6     5
-1.6776746900e-02     2     2     6     6
 2.3872100000e-05     2     2     6     7
 2.7268300000e-05     2     2     6     8
-1.8560656600e-02     2     2     6     9
 2.1622414000e-03     2     2     7     1
-2.0907477700e-02     2     2     7     3
-1.1475382100e-02     2     2     7     4
 1.1462750000e-04     2     2     7     5
 2.3872100000e-05     2     2     7     6
-7.6943104000e-03     2     2     7     7
 2.6660610000e-04     2     2     7     8
-5.4800000000e-08     2     2     7     9
 3.4735446000e-03     2     2     8     1
 1.7356792600e-02     2     2     8     3
-1.6269930900e-02     2     2     8     4
 8.8676400000e-05     2     2     8     5
 2.7268300000e-05     2     2     8     6
 2.6660610000e-04     2     2     8     7
-7.4273766000e-03     2     2     8     8
 1.2343000000e-06     2     2     8     9
-1.0169800000e-05     2     2     9     1
-3.5241300000e-05     2     2     9     3
-1.1831040000e-04     2     2     9     4
-1.0762012700e-02     2     2     9     5
-1.8560656600e-02     2     2     9     6
-5.4800000000e-08     2     2     9     7
 1.2343000000e-06     2     2     9     8
-5.7482059000e-03     2     2     9     9
 3.6087747800e-02     2     3     1     1
-2.0214442000e-02     2     3     1     2
 1.3492975000e-03     2     3     1     4
-1.4824000000e-05     2     3     1     5
-3.3132000000e-06     2     3     1     6
-6.1873398000e-03     2     3     1     7
 3.4053640000e-03     2     3     1     8
-6.2592000000e-06     2     3     1     9