&FCI NORB=  9,NELEC=  2,MS2=0,
 ORBSYM=1,1,1,1,1,1,1,1,1
 ISYM=1,
&END
 1.0694225830e-01     1     1     2     2
-1.0771600900e-02     1     1     2     3
 1.7623550000e-04     1     1     2     4
 3.3604610000e-04     1     1     2     5
 8.7154334900e-02     1     1     2     6
-1.0440250000e-04     1     1     2     7
 5.2940000000e-05     1     1     2     8
-1.3395639000e-02     1     1     2     9
-1.0771600900e-02     1     1     3     2
 1.4067077470e-01     1     1     3     3
-7.5676900000e-05     1     1     3     4
-1.4443930000e-04     1     1     3     5
 6.9837270000e-04     1     1     3     6
-1.6477840000e-04     1     1     3     7
-2.2029862000e-03     1     1     3     8
-6.2668159600e-02     1     1     3     9
 1.7623550000e-04     1     1     4     2
-7.5676900000e-05     1     1     4     3
 1.3545374440e-01     1     1     4     4
 2.4374000000e-06     1     1     4     5
-6.4631500000e-05     1     1     4     6
-5.9035677800e-02     1     1     4     7
-2.5634399100e-02     1     1     4     8
 9.9299680000e-04     1     1     4     9
 3.3604610000e-04     1     1     5     2
-1.4443930000e-04     1     1     5     3
 2.4374000000e-06     1     1     5     4
 1.3546142670e-01     1     1     5     5
 3.7023000000e-05     1     1     5     6
 2.5640484400e-02     1     1     5     7
-5.8988442700e-02     1     1     5     8
 1.8953328000e-03     1     1     5     9
 8.7154334900e-02     1     1     6     2
 6.9837270000e-04     1     1     6     3
-6.4631500000e-05     1     1     6     4
 3.7023000000e-05     1     1     6     5
 1.8906985750e-01     1     1     6     6
-1.6785100000e-05     1     1     6     7
 3.0467000000e-06     1     1     6     8
 4.4426494000e-03     1     1     6     9
-1.0440250000e-04     1     1     7     2
-1.6477840000e-04     1     1     7     3
-5.9035677800e-02     1     1     7     4
 2.5640484400e-02     1     1     7     5
-1.6785100000e-05     1     1     7     6
 1.8959689500e-01     1     1     7     7
 3.4702000000e-06     1     1     7     8
-9.2083000000e-06     1     1     7     9
 5.2940000000e-05     1     1     8     2
-2.2029862000e-03     1     1     8     3
-2.5634399100e-02     1     1     8     4
-5.8988442700e-02     1     1     8     5
 3.0467000000e-06     1     1     8     6
 3.4702000000e-06     1     1     8     7
 1.8958301840e-01     1     1     8     8
-4.2721000000e-05     1     1     8     9
-1.3395639000e-02     1     1     9     2
-6.2668159600e-02     1     1     9     3
 9.9299680000e-04     1     1     9     4
 1.8953328000e-03     1     1     9     5
 4.4426494000e-03     1     1     9     6
-9.2083000000e-06     1     1     9     7
-4.2721000000e-05     1     1     9     8
 2.1567190690e-01     1     1     9     9
-1.0694225830e-01     1     2     2     1
-3.9542775900e-02     1     2     2     3
 6.5347720000e-04     1     2     2     4
 1.2475011000e-03     1     2     2     5
 5.6303538600e-02     1     2     2     6
-7.0731500000e-05     1     2     2     7
 3.3246000000e-06     1     2     2     8
 1.1745264300e-02     1     2     2     9
 1.0771600900e-02     1     2     3     1
 8.5411768200e-02     1     2     3     3
-4.4505200000e-05     1     2     3     4
-8.5009900000e-05     1     2     3     5
 1.3716395100e-02     1     2     3     6
-1.5152210000e-04     1     2     3     7
-1.8355527000e-03     1     2     3     8
-5.2017541400e-02     1     2     3     9
-1.7623550000e-04     1     2     4     1
-4.2299400000e-05     1     2     4     3
 8.2668312700e-02     1     2     4     4
 1.5168000000e-06     1     2     4     5
-2.7756430000e-04     1     2     4     6
-4.9388404700e-02     1     2     4     7
-2.1448492100e-02     1     2     4     8
 8.2803590000e-04     1     2     4     9
-3.3604610000e-04     1     2     5     1
-8.0765400000e-05     1     2     5     3
 1.3975000000e-06     1     2     5     4
 8.2672103800e-02     1     2     5     5
-3.9098940000e-04     1     2     5     6
 2.1461988600e-02     1     2     5     7
-4.9356740100e-02     1     2     5     8
 1.5805842000e-03     1     2     5     9
-8.7154334900e-02     1     2     6     1
 3.1388762000e-03     1     2     6     3
-6.9905400000e-05     1     2     6     4
-8.5681800000e-05     1     2     6     5
 9.2593855400e-02     1     2     6     6
-1.5358000000e-05     1     2     6     7
-9.3506000000e-06     1     2     6     8
 1.0329535300e-02     1     2     6     9
 1.0440250000e-04     1     2     7     1
-4.9304300000e-05     1     2     7     3
-1.6765751900e-02     1     2     7     4
 7.2832695000e-03     1     2     7     5
-1.3610100000e-05     1     2     7     6
 9.0489794100e-02     1     2     7     7
 4.9358000000e-06     1     2     7     8
-1.2365900000e-05     1     2     7     9
-5.2940000000e-05     1     2     8     1
-6.2022180000e-04     1     2     8     3
-7.2788893000e-03     1     2     8     4
-1.6754627100e-02     1     2     8     5
 6.1027000000e-06     1     2     8     6
 1.4754000000e-06     1     2     8     7
 9.0481286000e-02     1     2     8     8
-1.3002200000e-05     1     2     8     9
 1.3395639000e-02     1     2     9     1
-1.6827762300e-02     1     2     9     3
 2.6635840000e-04     1     2     9     4
 5.0841960000e-04     1     2     9     5
 7.3254450000e-04     1     2     9     6
-2.5940000000e-07     1     2     9     7
-1.0281100000e-05     1     2     9     8
 1.0648136970e-01     1     2     9     9
 1.0771600900e-02     1     3     2     1
 3.9542775900e-02     1     3     2     2
-2.2058000000e-06     1     3     2     4
-4.2445000000e-06     1     3     2     5
 1.0577518900e-02     1     3     2     6
-1.0221780000e-04     1     3     2     7
-1.2153309000e-03     1     3     2     8
-3.5189779100e-02     1     3     2     9
-1.4067077470e-01     1     3     3     1
-8.5411768200e-02     1     3     3     2
 6.6859310000e-04     1     3     3     4
 1.2767559000e-03     1     3     3     5
-2.7452871200e-02     1     3     3     6
 6.1691500000e-05     1     3     3     7
 4.2375720000e-04     1     3     3     8
 1.6210998000e-03     1     3     3     9
 7.5676900000e-05     1     3     4     1
 4.2299400000e-05     1     3     4     2
 4.0251095700e-02     1     3     4     4
-3.4900000000e-08     1     3     4     5
 1.9419400000e-04     1     3     4     6
 5.3446297000e-03     1     3     4     7
 2.3225086000e-03     1     3     4     8
-1.5160180000e-04     1     3     4     9
 1.4443930000e-04     1     3     5     1
 8.0765400000e-05     1     3     5     2
-9.1300000000e-08     1     3     5     4
 4.0251357400e-02     1     3     5     5
 3.4630060000e-04     1     3     5     6
-2.3406874000e-03     1     3     5     7
 5.3472745000e-03     1     3     5     8
-2.8962870000e-04     1     3     5     9
-6.9837270000e-04     1     3     6     1
-3.1388762000e-03     1     3     6     2
 1.8298000000e-06     1     3     6     4
 4.2752000000e-06     1     3     6     5
 3.9346896100e-02     1     3     6     6
-4.8348000000e-06     1     3     6     7
-1.3249620000e-04     1     3     6     8
-1.5537984600e-02     1     3     6     9
 1.6477840000e-04     1     3     7     1
 4.9304300000e-05     1     3     7     2
-3.6826260000e-04     1     3     7     4
 1.6012880000e-04     1     3     7     5
 5.0355100000e-05     1     3     7     6
 4.4085172900e-02     1     3     7     7
-2.6453000000e-06     1     3     7     8
 2.9839000000e-05     1     3     7     9
 2.2029862000e-03     1     3     8     1
 6.2022180000e-04     1     3     8     2
-1.6070420000e-04     1     3     8     4
-3.6817620000e-04     1     3     8     5
 6.3423210000e-04     1     3     8     6
 1.2553000000e-06     1     3     8     7
 4.4083675100e-02     1     3     8     8
 1.7912290000e-04     1     3     8     9
 6.2668159600e-02     1     3     9     1
 1.6827762300e-02     1     3     9     2
 5.6480000000e-07     1     3     9     4
 1.0986000000e-06     1     3     9     5
 8.0579346000e-03     1     3     9     6
-5.5472000000e-06     1     3     9     7
 9.8751100000e-05     1     3     9     8
 4.5555958100e-02     1     3     9     9
-1.7623550000e-04     1     4     2     1
-6.5347720000e-04     1     4     2     2
 2.2058000000e-06     1     4     2     3
 1.1930000000e-07     1     4     2     5
-2.0765890000e-04     1     4     2     6
-3.2622652800e-02     1     4     2     7
-1.4169602800e-02     1     4     2     8
 5.6167750000e-04     1     4     2     9
 7.5676900000e-05     1     4     3     1
 4.4505200000e-05     1     4     3     2
-6.6859310000e-04     1     4     3     3
 5.6400000000e-08     1     4     3     5
 1.9236420000e-04     1     4     3     6
 5.7128923000e-03     1     4     3     7
 2.4832128000e-03     1     4     3     8
-1.5216660000e-04     1     4     3     9
-1.3545374440e-01     1     4     4     1
-8.2668312700e-02     1     4     4     2
-4.0251095700e-02     1     4     4     3
 1.2649812000e-03     1     4     4     5
-1.6263058400e-02     1     4     4     6
-1.5338210000e-04     1     4     4     7
-9.6310900000e-05     1     4     4     8
-7.5617152000e-03     1     4     4     9
-2.4374000000e-06     1     4     5     1
-1.3975000000e-06     1     4     5     2
 9.1300000000e-08     1     4     5     3
-6.6247420000e-04     1     4     5     5
-5.9839000000e-06     1     4     5     6
-1.4550470000e-04     1     4     5     7
-1.6745700000e-04     1     4     5     8
 4.3445000000e-06     1     4     5     9
 6.4631500000e-05     1     4     6     1
 6.9905400000e-05     1     4     6     2
-1.8298000000e-06     1     4     6     3
-8.5900000000e-08     1     4     6     5
-6.3372070000e-04     1     4     6     6
-4.0999664000e-03     1     4     6     7
-1.7814774000e-03     1     4     6     8
 2.6217100000e-04     1     4     6     9
 5.9035677800e-02     1     4     7     1
 1.6765751900e-02     1     4     7     2
 3.6826260000e-04     1     4     7     3
-1.7917200000e-05     1     4     7     5
 1.6715480000e-02     1     4     7     6
-7.3418560000e-04     1     4     7     7
 7.3942000000e-06     1     4     7     8
 5.3787751000e-03     1     4     7     9
 2.5634399100e-02     1     4     8     1
 7.2788893000e-03     1     4     8     2
 1.6070420000e-04     1     4     8     3
 1.1600000000e-06     1     4     8     5
 7.2591583000e-03     1     4     8     6
-1.2360300000e-05     1     4     8     7
-7.3002760000e-04     1     4     8     8
 2.3374336000e-03     1     4     8     9
-9.9299680000e-04     1     4     9     1
-2.6635840000e-04     1     4     9     2
-5.6480000000e-07     1     4     9     3
 4.3000000000e-08     1     4     9     5
-1.1838880000e-04     1     4     9     6
 3.1840205000e-03     1     4     9     7
 1.3824420000e-03     1     4     9     8
-7.6295460000e-04     1     4     9     9
-3.3604610000e-04     1     5     2     1
-1.2475011000e-03     1     5     2     2
 4.2445000000e-06     1     5     2     3
-1.1930000000e-07     1     5     2     4
-3.0530760000e-04     1     5     2     6
 1.4178719100e-02     1     5     2     7
-3.2602113000e-02     1     5     2     8
 1.0721646000e-03     1     5     2     9
 1.4443930000e-04     1     5     3     1
 8.5009900000e-05     1     5     3     2
-1.2767559000e-03     1     5     3     3
-5.6400000000e-08     1     5     3     4
 3.4202540000e-04     1     5     3     6
-2.5008162000e-03     1     5     3     7
 5.7154507000e-03     1     5     3     8
-2.9072730000e-04     1     5     3     9
-2.4374000000e-06     1     5     4     1
-1.5168000000e-06     1     5     4     2
 3.4900000000e-08     1     5     4     3
-1.2649812000e-03     1     5     4     4
-5.8980000000e-06     1     5     4     6
-1.2758750000e-04     1     5     4     7
-1.6861700000e-04     1     5     4     8
 4.3015000000e-06     1     5     4     9
-1.3546142670e-01     1     5     5     1
-8.2672103800e-02     1     5     5     2
-4.0251357400e-02     1     5     5     3
 6.6247420000e-04     1     5     5     4
-1.6271693300e-02     1     5     5     6
 1.6509110000e-04     1     5     5     7
-3.5102470000e-04     1     5     5     8
-7.5564673000e-03     1     5     5     9
-3.7023000000e-05     1     5     6     1
 8.5681800000e-05     1     5     6     2
-4.2752000000e-06     1     5     6     3
 8.5900000000e-08     1     5     6     4
-1.2563167000e-03     1     5     6     6
 1.7827112000e-03     1     5     6     7
-4.0960110000e-03     1     5     6     8
 4.8169250000e-04     1     5     6     9
-2.5640484400e-02     1     5     7     1
-7.2832695000e-03     1     5     7     2
-1.6012880000e-04     1     5     7     3
 1.7917200000e-05     1     5     7     4
-7.2634618000e-03     1     5     7     6
-1.3787266000e-03     1     5     7     7
-8.1818000000e-06     1     5     7     8
-2.3421374000e-03     1     5     7     9
 5.8988442700e-02     1     5     8     1
 1.6754627100e-02     1     5     8     2
 3.6817620000e-04     1     5     8     3
-1.1600000000e-06     1     5     8     4
 1.6705450600e-02     1     5     8     6
-3.0760400000e-05     1     5     8     7
-1.3745945000e-03     1     5     8     8
 5.3784056000e-03     1     5     8     9
-1.8953328000e-03     1     5     9     1
-5.0841960000e-04     1     5     9     2
-1.0986000000e-06     1     5     9     3
-4.3000000000e-08     1     5     9     4
-2.3707980000e-04     1     5     9     6
-1.3831575000e-03     1     5     9     7
 3.1815549000e-03     1     5     9     8
-1.4567784000e-03     1     5     9     9
-8.7154334900e-02     1     6     2     1
-5.6303538600e-02     1     6     2     2
-1.0577518900e-02     1     6     2     3
 2.0765890000e-04     1     6     2     4
 3.0530760000e-04     1     6     2     5
-1.7479000000e-06     1     6     2     7
-1.5453300000e-05     1     6     2     8
 9.5969908000e-03     1     6     2     9
-6.9837270000e-04     1     6     3     1
-1.3716395100e-02     1     6     3     2
 2.7452871200e-02     1     6     3     3
-1.9236420000e-04     1     6     3     4
-3.4202540000e-04     1     6     3     5
-5.5189900000e-05     1     6     3     7
-7.6672830000e-04     1     6     3     8
-2.3595919200e-02     1     6     3     9
 6.4631500000e-05     1     6     4     1
 2.7756430000e-04     1     6     4     2
-1.9419400000e-04     1     6     4     3
 1.6263058400e-02     1     6     4     4
 5.8980000000e-06     1     6     4     5
-2.0815446400e-02     1     6     4     7
-9.0406357000e-03     1     6     4     8
 3.8055980000e-04     1     6     4     9
-3.7023000000e-05     1     6     5     1
 3.9098940000e-04     1     6     5     2
-3.4630060000e-04     1     6     5     3
 5.9839000000e-06     1     6     5     4
 1.6271693300e-02     1     6     5     5
 9.0461730000e-03     1     6     5     7
-2.0801461600e-02     1     6     5     8
 7.1877230000e-04     1     6     5     9
-1.8906985750e-01     1     6     6     1
-9.2593855400e-02     1     6     6     2
-3.9346896100e-02     1     6     6     3
 6.3372070000e-04     1     6     6     4
 1.2563167000e-03     1     6     6     5
 8.4718000000e-06     1     6     6     7
-9.2484000000e-06     1     6     6     8
 3.5427220000e-04     1     6     6     9
 1.6785100000e-05     1     6     7     1
 1.3610100000e-05     1     6     7     2
-5.0355100000e-05     1     6     7     3
-1.6715480000e-02     1     6     7     4
 7.2634618000e-03     1     6     7     5
 8.5832209000e-03     1     6     7     7
 1.2704000000e-06     1     6     7     8
-3.2364000000e-06     1     6     7     9
-3.0467000000e-06     1     6     8     1
-6.1027000000e-06     1     6     8     2
-6.3423210000e-04     1     6     8     3
-7.2591583000e-03     1     6     8     4
-1.6705450600e-02     1     6     8     5
 2.0819000000e-06     1     6     8     7
 8.5800613000e-03     1     6     8     8
-2.2350000000e-06     1     6     8     9
-4.4426494000e-03     1     6     9     1
-7.3254450000e-04     1     6     9     2
-8.0579346000e-03     1     6     9     3
 1.1838880000e-04     1     6     9     4
 2.3707980000e-04     1     6     9     5
 5.8910000000e-07     1     6     9     7
-4.4470000000e-07     1     6     9     8
 1.1779380800e-02     1     6     9     9
 1.0440250000e-04     1     7     2     1
 7.0731500000e-05     1     7     2     2
 1.0221780000e-04     1     7     2     3
 3.2622652800e-02     1     7     2     4
-1.4178719100e-02     1     7     2     5
 1.7479000000e-06     1     7     2     6
 3.4604000000e-06     1     7     2     8
-1.2106500000e-05     1     7     2     9
 1.6477840000e-04     1     7     3     1
 1.5152210000e-04     1     7     3     2
-6.1691500000e-05     1     7     3     3
-5.7128923000e-03     1     7     3     4
 2.5008162000e-03     1     7     3     5
 5.5189900000e-05     1     7     3     6
-3.9006000000e-06     1     7     3     8
 3.5386200000e-05     1     7     3     9
 5.9035677800e-02     1     7     4     1
 4.9388404700e-02     1     7     4     2
-5.3446297000e-03     1     7     4     3
 1.5338210000e-04     1     7     4     4
 1.2758750000e-04     1     7     4     5
 2.0815446400e-02     1     7     4     6
 1.9754500000e-05     1     7     4     8
 2.1947546000e-03     1     7     4     9
-2.5640484400e-02     1     7     5     1
-2.1461988600e-02     1     7     5     2
 2.3406874000e-03     1     7     5     3
 1.4550470000e-04     1     7     5     4
-1.6509110000e-04     1     7     5     5
-9.0461730000e-03     1     7     5     6
 2.2578600000e-05     1     7     5     8
-9.5897990000e-04     1     7     5     9
 1.6785100000e-05     1     7     6     1
 1.5358000000e-05     1     7     6     2
 4.8348000000e-06     1     7     6     3
 4.0999664000e-03     1     7     6     4
-1.7827112000e-03     1     7     6     5
-8.4718000000e-06     1     7     6     6
-8.1150000000e-07     1     7     6     8
-3.8255000000e-06     1     7     6     9
-1.8959689500e-01     1     7     7     1
-9.0489794100e-02     1     7     7     2
-4.4085172900e-02     1     7     7     3
 7.3418560000e-04     1     7     7     4
 1.3787266000e-03     1     7     7     5
-8.5832209000e-03     1     7     7     6
-1.0724000000e-05     1     7     7     8
-1.6819098000e-03     1     7     7     9
-3.4702000000e-06     1     7     8     1
-1.4754000000e-06     1     7     8     2
-1.2553000000e-06     1     7     8     3
 1.2360300000e-05     1     7     8     4
 3.0760400000e-05     1     7     8     5
-2.0819000000e-06     1     7     8     6
-1.0800900000e-05     1     7     8     8
 4.4440000000e-07     1     7     8     9
 9.2083000000e-06     1     7     9     1
 2.5940000000e-07     1     7     9     2
 5.5472000000e-06     1     7     9     3
-3.1840205000e-03     1     7     9     4
 1.3831575000e-03     1     7     9     5
-5.8910000000e-07     1     7     9     6
 1.4810000000e-07     1     7     9     8
-1.4346200000e-05     1     7     9     9
-5.2940000000e-05     1     8     2     1
-3.3246000000e-06     1     8     2     2
 1.2153309000e-03     1     8     2     3
 1.4169602800e-02     1     8     2     4
 3.2602113000e-02     1     8     2     5
 1.5453300000e-05     1     8     2     6
-3.4604000000e-06     1     8     2     7
-2.7211000000e-06     1     8     2     9
 2.2029862000e-03     1     8     3     1
 1.8355527000e-03     1     8     3     2
-4.2375720000e-04     1     8     3     3
-2.4832128000e-03     1     8     3     4
-5.7154507000e-03     1     8     3     5
 7.6672830000e-04     1     8     3     6
 3.9006000000e-06     1     8     3     7
 8.0371800000e-05     1     8     3     9
 2.5634399100e-02     1     8     4     1
 2.1448492100e-02     1     8     4     2
-2.3225086000e-03     1     8     4     3
 9.6310900000e-05     1     8     4     4
 1.6861700000e-04     1     8     4     5
 9.0406357000e-03     1     8     4     6
-1.9754500000e-05     1     8     4     7
 9.5499160000e-04     1     8     4     9
 5.8988442700e-02     1     8     5     1
 4.9356740100e-02     1     8     5     2
-5.3472745000e-03     1     8     5     3
 1.6745700000e-04     1     8     5     4
 3.5102470000e-04     1     8     5     5
 2.0801461600e-02     1     8     5     6
-2.2578600000e-05     1     8     5     7
 2.1968507000e-03     1     8     5     9
-3.0467000000e-06     1     8     6     1
 9.3506000000e-06     1     8     6     2
 1.3249620000e-04     1     8     6     3
 1.7814774000e-03     1     8     6     4
 4.0960110000e-03     1     8     6     5
 9.2484000000e-06     1     8     6     6
 8.1150000000e-07     1     8     6     7
-1.7903000000e-06     1     8     6     9
-3.4702000000e-06     1     8     7     1
-4.9358000000e-06     1     8     7     2
 2.6453000000e-06     1     8     7     3
-7.3942000000e-06     1     8     7     4
 8.1818000000e-06     1     8     7     5
-1.2704000000e-06     1     8     7     6
 1.0724000000e-05     1     8     7     7
 2.9630000000e-07     1     8     7     9
-1.8958301840e-01     1     8     8     1
-9.0481286000e-02     1     8     8     2
-4.4083675100e-02     1     8     8     3
 7.3002760000e-04     1     8     8     4
 1.3745945000e-03     1     8     8     5
-8.5800613000e-03     1     8     8     6
 1.0800900000e-05     1     8     8     7
-1.6825172000e-03     1     8     8     9
 4.2721000000e-05     1     8     9     1
 1.0281100000e-05     1     8     9     2
-9.8751100000e-05     1     8     9     3
-1.3824420000e-03     1     8     9     4
-3.1815549000e-03     1     8     9     5
 4.4470000000e-07     1     8     9     6
-1.4810000000e-07     1     8     9     7
 1.2765600000e-05     1     8     9     9
 1.3395639000e-02     1     9     2     1
-1.1745264300e-02     1     9     2     2
 3.5189779100e-02     1     9     2     3
-5.6167750000e-04     1     9     2     4
-1.0721646000e-03     1     9     2     5
-9.5969908000e-03     1     9     2     6
 1.2106500000e-05     1     9     2     7
 2.7211000000e-06     1     9     2     8
 6.2668159600e-02     1     9     3     1
 5.2017541400e-02     1     9     3     2
-1.6210998000e-03     1     9     3     3
 1.5216660000e-04     1     9     3     4
 2.9072730000e-04     1     9     3     5
 2.3595919200e-02     1     9     3     6
-3.5386200000e-05     1     9     3     7
-8.0371800000e-05     1     9     3     8
-9.9299680000e-04     1     9     4     1
-8.2803590000e-04     1     9     4     2
 1.5160180000e-04     1     9     4     3
 7.5617152000e-03     1     9     4     4
-4.3015000000e-06     1     9     4     5
-3.8055980000e-04     1     9     4     6
-2.1947546000e-03     1     9     4     7
-9.5499160000e-04     1     9     4     8
-1.8953328000e-03     1     9     5     1
-1.5805842000e-03     1     9     5     2
 2.8962870000e-04     1     9     5     3
-4.3445000000e-06     1     9     5     4
 7.5564673000e-03     1     9     5     5
-7.1877230000e-04     1     9     5     6
 9.5897990000e-04     1     9     5     7
-2.1968507000e-03     1     9     5     8
-4.4426494000e-03     1     9     6     1
-1.0329535300e-02     1     9     6     2
 1.5537984600e-02     1     9     6     3
-2.6217100000e-04     1     9     6     4
-4.8169250000e-04     1     9     6     5
-3.5427220000e-04     1     9     6     6
 3.8255000000e-06     1     9     6     7
 1.7903000000e-06     1     9     6     8
 9.2083000000e-06     1     9     7     1
 1.2365900000e-05     1     9     7     2
-2.9839000000e-05     1     9     7     3
-5.3787751000e-03     1     9     7     4
 2.3421374000e-03     1     9     7     5
 3.2364000000e-06     1     9     7     6
 1.6819098000e-03     1     9     7     7
-2.9630000000e-07     1     9     7     8
 4.2721000000e-05     1     9     8     1
 1.3002200000e-05     1     9     8     2
-1.7912290000e-04     1     9     8     3
-2.3374336000e-03     1     9     8     4
-5.3784056000e-03     1     9     8     5
 2.2350000000e-06     1     9     8     6
-4.4440000000e-07     1     9     8     7
 1.6825172000e-03     1     9     8     8
-2.1567190690e-01     1     9     9     1
-1.0648136970e-01     1     9     9     2
-4.5555958100e-02     1     9     9     3
 7.6295460000e-04     1     9     9     4
 1.4567784000e-03     1     9     9     5
-1.1779380800e-02     1     9     9     6
 1.4346200000e-05     1     9     9     7
-1.2765600000e-05     1     9     9     8
-1.0694225830e-01     2     1     1     2
 1.0771600900e-02     2     1     1     3
-1.7623550000e-04     2     1     1     4
-3.3604610000e-04     2     1     1     5
-8.7154334900e-02     2     1     1     6
 1.0440250000e-04     2     1     1     7
-5.2940000000e-05     2     1     1     8
 1.3395639000e-02     2     1     1     9
-3.9542775900e-02     2     1     3     2
 8.5411768200e-02     2     1     3     3
-4.2299400000e-05     2     1     3     4
-8.0765400000e-05     2     1     3     5
 3.1388762000e-03     2     1     3     6
-4.9304300000e-05     2     1     3     7
-6.2022180000e-04     2     1     3     8
-1.6827762300e-02     2     1     3     9
 6.5347720000e-04     2     1     4     2
-4.4505200000e-05     2     1     4     3
 8.2668312700e-02     2     1     4     4
 1.3975000000e-06     2     1     4     5
-6.9905400000e-05     2     1     4     6
-1.6765751900e-02     2     1     4     7
-7.2788893000e-03     2     1     4     8
 2.6635840000e-04     2     1     4     9
 1.2475011000e-03     2     1     5     2
-8.5009900000e-05     2     1     5     3
 1.5168000000e-06     2     1     5     4
 8.2672103800e-02     2     1     5     5
-8.5681800000e-05     2     1     5     6
 7.2832695000e-03     2     1     5     7
-1.6754627100e-02     2     1     5     8
 5.0841960000e-04     2     1     5     9
 5.6303538600e-02     2     1     6     2
 1.3716395100e-02     2     1     6     3
-2.7756430000e-04     2     1     6     4
-3.9098940000e-04     2     1     6     5
 9.2593855400e-02     2     1     6     6
-1.3610100000e-05     2     1     6     7
 6.1027000000e-06     2     1     6     8
 7.3254450000e-04     2     1     6     9
-7.0731500000e-05     2     1     7     2
-1.5152210000e-04     2     1     7     3
-4.9388404700e-02     2     1     7     4
 2.1461988600e-02     2     1     7     5
-1.5358000000e-05     2     1     7     6
 9.0489794100e-02     2     1     7     7
 1.4754000000e-06     2     1     7     8
-2.5940000000e-07     2     1     7     9
 3.3246000000e-06     2     1     8     2
-1.8355527000e-03     2     1     8     3
-2.1448492100e-02     2     1     8     4
-4.9356740100e-02     2     1     8     5
-9.3506000000e-06     2     1     8     6
 4.9358000000e-06     2     1     8     7
 9.0481286000e-02     2     1     8     8
-1.0281100000e-05     2     1     8     9
 1.1745264300e-02     2     1     9     2
-5.2017541400e-02     2     1     9     3
 8.2803590000e-04     2     1     9     4
 1.5805842000e-03     2     1     9     5
 1.0329535300e-02     2     1     9     6
-1.2365900000e-05     2     1     9     7
-1.3002200000e-05     2     1     9     8
 1.0648136970e-01     2     1     9     9
 1.0694225830e-01     2     2     1     1
 3.9542775900e-02     2     2     1     3
-6.5347720000e-04     2     2     1     4
-1.2475011000e-03     2     2     1     5
-5.6303538600e-02     2     2     1     6
 7.0731500000e-05     2     2     1     7
-3.3246000000e-06     2     2     1     8
-1.1745264300e-02     2     2     1     9
 3.9542775900e-02     2     2     3     1
 1.5692862680e-01     2     2     3     3
-1.1288470000e-04     2     2     3     4
-2.1546570000e-04     2     2     3     5
-1.0677850000e-03     2     2     3     6
-1.8359770000e-04     2     2     3     7
-2.4900308000e-03     2     2     3     8
-6.6311748400e-02     2     2     3     9
-6.5347720000e-04     2     2     4     1
-1.1288470000e-04     2     2     4     3
 1.4936602050e-01     2     2     4     4
 3.6367000000e-06     2     2     4     5
-4.3100300000e-05     2     2     4     6
-6.6810461500e-02     2     2     4     7
-2.9011470500e-02     2     2     4     8
 1.0491952000e-03     2     2     4     9
-1.2475011000e-03     2     2     5     1
-2.1546570000e-04     2     2     5     3
 3.6367000000e-06     2     2     5     4
 1.4937588780e-01     2     2     5     5
 1.0056140000e-04     2     2     5     6
 2.9019014600e-02     2     2     5     7
-6.6756701700e-02     2     2     5     8
 2.0025653000e-03     2     2     5     9
-5.6303538600e-02     2     2     6     1
-1.0677850000e-03     2     2     6     3
-4.3100300000e-05     2     2     6     4
 1.0056140000e-04     2     2     6     5
 1.1582386900e-01     2     2     6     6
 1.9389200000e-05     2     2     6     7
-6.5432000000e-06     2     2     6     8
 9.0007210000e-04     2     2     6     9
 7.0731500000e-05     2     2     7     1
-1.8359770000e-04     2     2     7     3
-6.6810461500e-02     2     2     7     4
 2.9019014600e-02     2     2     7     5
 1.9389200000e-05     2     2     7     6
 1.4355715170e-01     2     2     7     7
 1.4995000000e-06     2     2     7     8
-4.7716000000e-06     2     2     7     9
-3.3246000000e-06     2     2     8     1
-2.4900308000e-03     2     2     8     3
-2.9011470500e-02     2     2     8     4
-6.6756701700e-02     2     2     8     5
-6.5432000000e-06     2     2     8     6
 1.4995000000e-06     2     2     8     7
 1.4354618870e-01     2     2     8     8
-3.8228900000e-05     2     2     8     9
-1.1745264300e-02     2     2     9     1
-6.6311748400e-02     2     2     9     3
 1.0491952000e-03     2     2     9     4
 2.0025653000e-03     2     2     9     5
 9.0007210000e-04     2     2     9     6
-4.7716000000e-06     2     2     9     7
-3.8228900000e-05     2     2     9     8
 1.6643196900e-01     2     2     9     9
-1.0771600900e-02     2     3     1     1
-3.9542775900e-02     2     3     1     2
 2.2058000000e-06     2     3     1     4
 4.2445000000e-06     2     3     1     5
-1.0577518900e-02     2     3     1     6
 1.0221780000e-04     2     3     1     7
 1.2153309000e-03     2     3     1     8
 3.5189779100e-02     2     3     1     9