&FCI NORB=  9,NELEC=  2,MS2=0,
 ORBSYM=1,1,1,1,1,1,1,1,1
 ISYM=1,
&END
 1.3670616660e-01     1     1     2     2
 1.0269000000e-06     1     1     2     3
-1.3031000000e-06     1     1     2     4
 2.8173217000e-03     1     1     2     5
 1.0140660340e-01     1     1     2     6
-3.0424840000e-04     1     1     2     7
-4.8424900000e-05     1     1     2     8
-2.2848118600e-02     1     1     2     9
 1.0269000000e-06     1     1     3     2
 1.7064493420e-01     1     1     3     3
-1.9200000000e-08     1     1     3     4
 1.4985500000e-05     1     1     3     5
-9.3389400000e-05     1     1     3     6
-1.9185617400e-02     1     1     3     7
-7.9959016700e-02     1     1     3     8
 5.7725200000e-05     1     1     3     9
-1.3031000000e-06     1     1     4     2
-1.9200000000e-08     1     1     4     3
 1.7063837540e-01     1     1     4     4
-2.0008600000e-05     1     1     4     5
-2.3339370000e-04     1     1     4     6
-7.9960761200e-02     1     1     4     7
 1.9185606500e-02     1     1     4     8
-1.0890520000e-04     1     1     4     9
 2.8173217000e-03     1     1     5     2
 1.4985500000e-05     1     1     5     3
-2.0008600000e-05     1     1     5     4
 2.0241773660e-01     1     1     5     5
 1.7865677600e-02     1     1     5     6
-6.1344000000e-05     1     1     5     7
 6.7212000000e-06     1     1     5     8
 8.0059127100e-02     1     1     5     9
 1.0140660340e-01     1     1     6     2
-9.3389400000e-05     1     1     6     3
-2.3339370000e-04     1     1     6     4
 1.7865677600e-02     1     1     6     5
 2.4634411290e-01     1     1     6     6
-1.3580900000e-05     1     1     6     7
-6.5345000000e-06     1     1     6     8
-1.6523859000e-03     1     1     6     9
-3.0424840000e-04     1     1     7     2
-1.9185617400e-02     1     1     7     3
-7.9960761200e-02     1     1     7     4
-6.1344000000e-05     1     1     7     5
-1.3580900000e-05     1     1     7     6
 2.4853747850e-01     1     1     7     7
 8.0700000000e-08     1     1     7     8
 5.2747000000e-06     1     1     7     9
-4.8424900000e-05     1     1     8     2
-7.9959016700e-02     1     1     8     3
 1.9185606500e-02     1     1     8     4
 6.7212000000e-06     1     1     8     5
-6.5345000000e-06     1     1     8     6
 8.0700000000e-08     1     1     8     7
 2.4854694420e-01     1     1     8     8
 3.3504000000e-06     1     1     8     9
-2.2848118600e-02     1     1     9     2
 5.7725200000e-05     1     1     9     3
-1.0890520000e-04     1     1     9     4
 8.0059127100e-02     1     1     9     5
-1.6523859000e-03     1     1     9     6
 5.2747000000e-06     1     1     9     7
 3.3504000000e-06     1     1     9     8
 2.5086532070e-01     1     1     9     9
-1.3670616660e-01     1     2     2     1
-4.4162000000e-06     1     2     2     3
 6.2506000000e-06     1     2     2     4
-5.1827619000e-03     1     2     2     5
-6.1259160500e-02     1     2     2     6
 1.8568470000e-04     1     2     2     7
 2.8851000000e-05     1     2     2     8
 1.5621730400e-02     1     2     2     9
-1.0269000000e-06     1     2     3     1
-1.0261449060e-01     1     2     3     3
 1.3620000000e-07     1     2     3     4
-3.5940000000e-07     1     2     3     5
 6.4309000000e-05     1     2     3     6
 1.3035072100e-02     1     2     3     7
 5.4326262800e-02     1     2     3     8
-3.3782800000e-05     1     2     3     9
 1.3031000000e-06     1     2     4     1
-1.3320000000e-07     1     2     4     3
-1.0261213810e-01     1     2     4     4
 4.3010000000e-07     1     2     4     5
 1.5581070000e-04     1     2     4     6
 5.4326962000e-02     1     2     4     7
-1.3035273300e-02     1     2     4     8
 6.3485800000e-05     1     2     4     9
-2.8173217000e-03     1     2     5     1
-1.1269000000e-06     1     2     5     3
 1.4549000000e-06     1     2     5     4
-1.0918527990e-01     1     2     5     5
-1.0001336100e-02     1     2     5     6
 3.6992300000e-05     1     2     5     7
-7.2493000000e-06     1     2     5     8
-5.2600784500e-02     1     2     5     9
-1.0140660340e-01     1     2     6     1
 1.4245800000e-05     1     2     6     3
 3.7818800000e-05     1     2     6     4
-2.5887941000e-03     1     2     6     5
-1.1752307920e-01     1     2     6     6
 1.3497000000e-05     1     2     6     7
 3.6447000000e-06     1     2     6     8
 1.9275697000e-03     1     2     6     9
 3.0424840000e-04     1     2     7     1
 3.0316164000e-03     1     2     7     3
 1.2643626200e-02     1     2     7     4
 5.7743000000e-06     1     2     7     5
 1.3124600000e-05     1     2     7     6
-1.1748274450e-01     1     2     7     7
 7.2160000000e-07     1     2     7     8
-1.2027900000e-05     1     2     7     9
 4.8424900000e-05     1     2     8     1
 1.2642394900e-02     1     2     8     3
-3.0318679000e-03     1     2     8     4
 2.7179000000e-06     1     2     8     5
 4.2801000000e-06     1     2     8     6
-9.2770000000e-07     1     2     8     7
-1.1748815490e-01     1     2     8     8
 2.1687000000e-06     1     2     8     9
 2.2848118600e-02     1     2     9     1
-1.1014500000e-05     1     2     9     3
 1.8636100000e-05     1     2     9     4
-1.5500479600e-02     1     2     9     5
 2.4426470000e-04     1     2     9     6
-3.5556000000e-06     1     2     9     7
 3.8760000000e-07     1     2     9     8
-1.2149058780e-01     1     2     9     9
-1.0269000000e-06     1     3     2     1
 4.4162000000e-06     1     3     2     2
 2.6940000000e-07     1     3     2     4
 7.6750000000e-07     1     3     2     5
 5.0063200000e-05     1     3     2     6
 1.0003455700e-02     1     3     2     7
 4.1683867900e-02     1     3     2     8
-2.2768300000e-05     1     3     2     9
-1.7064493420e-01     1     3     3     1
 1.0261449060e-01     1     3     3     2
 5.3376000000e-06     1     3     3     4
-4.1926011000e-03     1     3     3     5
 2.0204022000e-02     1     3     3     6
-6.4386600000e-05     1     3     3     7
 1.5954500000e-05     1     3     3     8
-1.1874435300e-02     1     3     3     9
 1.9200000000e-08     1     3     4     1
 1.3320000000e-07     1     3     4     2
 3.6615000000e-06     1     3     4     4
-9.1000000000e-09     1     3     4     5
 1.3020000000e-07     1     3     4     6
 3.6236000000e-06     1     3     4     7
-1.7303100000e-05     1     3     4     8
 1.2631324000e-03     1     3     4     9
-1.4985500000e-05     1     3     5     1
 1.1269000000e-06     1     3     5     2
-1.1200000000e-08     1     3     5     4
 6.8586000000e-06     1     3     5     5
 2.9714600000e-05     1     3     5     6
 3.3981850000e-03     1     3     5     7
 1.4159212500e-02     1     3     5     8
 1.1078010000e-04     1     3     5     9
 9.3389400000e-05     1     3     6     1
-1.4245800000e-05     1     3     6     2
-1.7210000000e-07     1     3     6     4
-9.8670000000e-07     1     3     6     5
-1.2768900000e-05     1     3     6     6
 1.9233974000e-03     1     3     6     7
 8.0110793000e-03     1     3     6     8
-1.2355300000e-05     1     3     6     9
 1.9185617400e-02     1     3     7     1
-3.0316164000e-03     1     3     7     2
-8.6830000000e-07     1     3     7     4
-6.7872600000e-05     1     3     7     5
-4.4554273000e-03     1     3     7     6
 1.3243200000e-05     1     3     7     7
-2.1244100000e-05     1     3     7     8
-3.5497640000e-04     1     3     7     9
 7.9959016700e-02     1     3     8     1
-1.2642394900e-02     1     3     8     2
-7.6780000000e-07     1     3     8     4
-2.8503580000e-04     1     3     8     5
-1.8569821000e-02     1     3     8     6
 5.3098700000e-05     1     3     8     7
 1.7797400000e-05     1     3     8     8
-2.4225230000e-04     1     3     8     9
-5.7725200000e-05     1     3     9     1
 1.1014500000e-05     1     3     9     2
 2.9900000000e-08     1     3     9     4
 3.1829000000e-06     1     3     9     5
-1.8655000000e-06     1     3     9     6
-7.2447570000e-04     1     3     9     7
-3.9398961000e-03     1     3     9     8
-9.9246000000e-06     1     3     9     9
 1.3031000000e-06     1     4     2     1
-6.2506000000e-06     1     4     2     2
-2.6940000000e-07     1     4     2     3
-1.0248000000e-06     1     4     2     5
 1.1799190000e-04     1     4     2     6
 4.1683335800e-02     1     4     2     7
-1.0003405400e-02     1     4     2     8
 4.4849700000e-05     1     4     2     9
 1.9200000000e-08     1     4     3     1
-1.3620000000e-07     1     4     3     2
-5.3376000000e-06     1     4     3     3
 2.1000000000e-09     1     4     3     5
 3.0230000000e-07     1     4     3     6
 4.4919000000e-06     1     4     3     7
-1.6535300000e-05     1     4     3     8
 1.2631025000e-03     1     4     3     9
-1.7063837540e-01     1     4     4     1
 1.0261213810e-01     1     4     4     2
-3.6615000000e-06     1     4     4     3
-4.1929772000e-03     1     4     4     5
 2.0200700700e-02     1     4     4     6
-9.5358800000e-05     1     4     4     7
 1.0132200000e-05     1     4     4     8
-1.3408870700e-02     1     4     4     9
 2.0008600000e-05     1     4     5     1
-1.4549000000e-06     1     4     5     2
 1.1200000000e-08     1     4     5     3
-9.7114000000e-06     1     4     5     5
 2.6626000000e-05     1     4     5     6
 1.4157049500e-02     1     4     5     7
-3.3983857000e-03     1     4     5     8
-2.0216350000e-04     1     4     5     9
 2.3339370000e-04     1     4     6     1
-3.7818800000e-05     1     4     6     2
 1.7210000000e-07     1     4     6     3
-4.2700000000e-08     1     4     6     5
-4.2470100000e-05     1     4     6     6
 8.0079077000e-03     1     4     6     7
-1.9233354000e-03     1     4     6     8
 1.6959000000e-05     1     4     6     9
 7.9960761200e-02     1     4     7     1
-1.2643626200e-02     1     4     7     2
 8.6830000000e-07     1     4     7     3
-2.8551820000e-04     1     4     7     5
-1.8572525700e-02     1     4     7     6
 2.2308400000e-05     1     4     7     7
 1.7768500000e-05     1     4     7     8
-4.5512000000e-06     1     4     7     9
-1.9185606500e-02     1     4     8     1
 3.0318679000e-03     1     4     8     2
 7.6780000000e-07     1     4     8     3
 6.7918500000e-05     1     4     8     5
 4.4553098000e-03     1     4     8     6
-1.3681000000e-05     1     4     8     7
-1.2491600000e-05     1     4     8     8
-2.9766070000e-04     1     4     8     9
 1.0890520000e-04     1     4     9     1
-1.8636100000e-05     1     4     9     2
-2.9900000000e-08     1     4     9     3
-7.0094000000e-06     1     4     9     5
-1.6121600000e-05     1     4     9     6
-4.0491615000e-03     1     4     9     7
 1.1895826000e-03     1     4     9     8
 1.9630900000e-05     1     4     9     9
-2.8173217000e-03     1     5     2     1
 5.1827619000e-03     1     5     2     2
-7.6750000000e-07     1     5     2     3
 1.0248000000e-06     1     5     2     4
-7.4125420000e-03     1     5     2     6
 3.1218000000e-05     1     5     2     7
-9.9672000000e-06     1     5     2     8
-3.7100304900e-02     1     5     2     9
-1.4985500000e-05     1     5     3     1
 3.5940000000e-07     1     5     3     2
 4.1926011000e-03     1     5     3     3
-2.1000000000e-09     1     5     3     4
 3.0701300000e-05     1     5     3     6
 3.4660576000e-03     1     5     3     7
 1.4444248300e-02     1     5     3     8
 1.0759720000e-04     1     5     3     9
 2.0008600000e-05     1     5     4     1
-4.3010000000e-07     1     5     4     2
 9.1000000000e-09     1     5     4     3
 4.1929772000e-03     1     5     4     4
 2.6668700000e-05     1     5     4     6
 1.4442567700e-02     1     5     4     7
-3.4663042000e-03     1     5     4     8
-1.9515410000e-04     1     5     4     9
-2.0241773660e-01     1     5     5     1
 1.0918527990e-01     1     5     5     2
-6.8586000000e-06     1     5     5     3
 9.7114000000e-06     1     5     5     4
 3.3986557700e-02     1     5     5     6
-5.5765100000e-05     1     5     5     7
-7.4859300000e-05     1     5     5     8
 2.1248246300e-02     1     5     5     9
-1.7865677600e-02     1     5     6     1
 2.5887941000e-03     1     5     6     2
 9.8670000000e-07     1     5     6     3
 4.2700000000e-08     1     5     6     4
 3.9344200000e-03     1     5     6     6
 3.8340000000e-06     1     5     6     7
 6.6947000000e-06     1     5     6     8
-1.8631956900e-02     1     5     6     9
 6.1344000000e-05     1     5     7     1
-5.7743000000e-06     1     5     7     2
 6.7872600000e-05     1     5     7     3
 2.8551820000e-04     1     5     7     4
 2.4823000000e-06     1     5     7     6
 6.4614506000e-03     1     5     7     7
 4.8150000000e-07     1     5     7     8
 8.7578300000e-05     1     5     7     9
-6.7212000000e-06     1     5     8     1
-2.7179000000e-06     1     5     8     2
 2.8503580000e-04     1     5     8     3
-6.7918500000e-05     1     5     8     4
 9.3893000000e-06     1     5     8     6
-5.2880000000e-07     1     5     8     7
 6.4607606000e-03     1     5     8     8
-1.6816000000e-05     1     5     8     9
-8.0059127100e-02     1     5     9     1
 1.5500479600e-02     1     5     9     2
-3.1829000000e-06     1     5     9     3
 7.0094000000e-06     1     5     9     4
 8.7384713000e-03     1     5     9     6
-5.2764800000e-05     1     5     9     7
 1.6742700000e-05     1     5     9     8
 3.2919490000e-03     1     5     9     9
-1.0140660340e-01     1     6     2     1
 6.1259160500e-02     1     6     2     2
-5.0063200000e-05     1     6     2     3
-1.1799190000e-04     1     6     2     4
 7.4125420000e-03     1     6     2     5
 3.7240000000e-07     1     6     2     7
-6.3540000000e-07     1     6     2     8
 1.6833050000e-03     1     6     2     9
 9.3389400000e-05     1     6     3     1
-6.4309000000e-05     1     6     3     2
-2.0204022000e-02     1     6     3     3
-3.0230000000e-07     1     6     3     4
-3.0701300000e-05     1     6     3     5
 6.3788247000e-03     1     6     3     7
 2.6580900300e-02     1     6     3     8
-1.0489800000e-05     1     6     3     9
 2.3339370000e-04     1     6     4     1
-1.5581070000e-04     1     6     4     2
-1.3020000000e-07     1     6     4     3
-2.0200700700e-02     1     6     4     4
-2.6668700000e-05     1     6     4     5
 2.6580433400e-02     1     6     4     7
-6.3786452000e-03     1     6     4     8
 3.3080600000e-05     1     6     4     9
-1.7865677600e-02     1     6     5     1
 1.0001336100e-02     1     6     5     2
-2.9714600000e-05     1     6     5     3
-2.6626000000e-05     1     6     5     4
-3.3986557700e-02     1     6     5     5
 1.3517000000e-06     1     6     5     7
-2.6946000000e-06     1     6     5     8
-2.7370428200e-02     1     6     5     9
-2.4634411290e-01     1     6     6     1
 1.1752307920e-01     1     6     6     2
 1.2768900000e-05     1     6     6     3
 4.2470100000e-05     1     6     6     4
-3.9344200000e-03     1     6     6     5
-3.3900900000e-05     1     6     6     7
-1.0875700000e-05     1     6     6     8
 3.9711305000e-03     1     6     6     9
 1.3580900000e-05     1     6     7     1
-1.3124600000e-05     1     6     7     2
 4.4554273000e-03     1     6     7     3
 1.8572525700e-02     1     6     7     4
-2.4823000000e-06     1     6     7     5
-1.2845245900e-02     1     6     7     7
 6.4120000000e-07     1     6     7     8
-9.4986000000e-06     1     6     7     9
 6.5345000000e-06     1     6     8     1
-4.2801000000e-06     1     6     8     2
 1.8569821000e-02     1     6     8     3
-4.4553098000e-03     1     6     8     4
-9.3893000000e-06     1     6     8     5
-1.5610000000e-07     1     6     8     7
-1.2845450700e-02     1     6     8     8
 2.1422000000e-06     1     6     8     9
 1.6523859000e-03     1     6     9     1
-2.4426470000e-04     1     6     9     2
 1.8655000000e-06     1     6     9     3
 1.6121600000e-05     1     6     9     4
-8.7384713000e-03     1     6     9     5
 9.7190000000e-07     1     6     9     7
-1.5357000000e-06     1     6     9     8
-1.0699603800e-02     1     6     9     9
 3.0424840000e-04     1     7     2     1
-1.8568470000e-04     1     7     2     2
-1.0003455700e-02     1     7     2     3
-4.1683335800e-02     1     7     2     4
-3.1218000000e-05     1     7     2     5
-3.7240000000e-07     1     7     2     6
 1.6493000000e-06     1     7     2     8
-8.4723000000e-06     1     7     2     9
 1.9185617400e-02     1     7     3     1
-1.3035072100e-02     1     7     3     2
 6.4386600000e-05     1     7     3     3
-4.4919000000e-06     1     7     3     4
-3.4660576000e-03     1     7     3     5
-6.3788247000e-03     1     7     3     6
-7.4342800000e-05     1     7     3     8
 3.6949930000e-04     1     7     3     9
 7.9960761200e-02     1     7     4     1
-5.4326962000e-02     1     7     4     2
-3.6236000000e-06     1     7     4     3
 9.5358800000e-05     1     7     4     4
-1.4442567700e-02     1     7     4     5
-2.6580433400e-02     1     7     4     6
 3.1449500000e-05     1     7     4     8
 4.0446103000e-03     1     7     4     9
 6.1344000000e-05     1     7     5     1
-3.6992300000e-05     1     7     5     2
-3.3981850000e-03     1     7     5     3
-1.4157049500e-02     1     7     5     4
 5.5765100000e-05     1     7     5     5
-1.3517000000e-06     1     7     5     6
 1.0103000000e-06     1     7     5     8
 1.4034310000e-04     1     7     5     9
 1.3580900000e-05     1     7     6     1
-1.3497000000e-05     1     7     6     2
-1.9233974000e-03     1     7     6     3
-8.0079077000e-03     1     7     6     4
-3.8340000000e-06     1     7     6     5
 3.3900900000e-05     1     7     6     6
 7.9730000000e-07     1     7     6     8
-1.0470500000e-05     1     7     6     9
-2.4853747850e-01     1     7     7     1
 1.1748274450e-01     1     7     7     2
-1.3243200000e-05     1     7     7     3
-2.2308400000e-05     1     7     7     4
-6.4614506000e-03     1     7     7     5
 1.2845245900e-02     1     7     7     6
-1.0553400000e-05     1     7     7     8
 1.9960496000e-03     1     7     7     9
-8.0700000000e-08     1     7     8     1
 9.2770000000e-07     1     7     8     2
-5.3098700000e-05     1     7     8     3
 1.3681000000e-05     1     7     8     4
 5.2880000000e-07     1     7     8     5
 1.5610000000e-07     1     7     8     6
 3.6318300000e-05     1     7     8     8
 6.6135600000e-05     1     7     8     9
-5.2747000000e-06     1     7     9     1
 3.5556000000e-06     1     7     9     2
 7.2447570000e-04     1     7     9     3
 4.0491615000e-03     1     7     9     4
 5.2764800000e-05     1     7     9     5
-9.7190000000e-07     1     7     9     6
 6.7900000000e-07     1     7     9     8
 2.2803200000e-05     1     7     9     9
 4.8424900000e-05     1     8     2     1
-2.8851000000e-05     1     8     2     2
-4.1683867900e-02     1     8     2     3
 1.0003405400e-02     1     8     2     4
 9.9672000000e-06     1     8     2     5
 6.3540000000e-07     1     8     2     6
-1.6493000000e-06     1     8     2     7
 1.7811000000e-06     1     8     2     9
 7.9959016700e-02     1     8     3     1
-5.4326262800e-02     1     8     3     2
-1.5954500000e-05     1     8     3     3
 1.6535300000e-05     1     8     3     4
-1.4444248300e-02     1     8     3     5
-2.6580900300e-02     1     8     3     6
 7.4342800000e-05     1     8     3     7
 3.6976438000e-03     1     8     3     9
-1.9185606500e-02     1     8     4     1
 1.3035273300e-02     1     8     4     2
 1.7303100000e-05     1     8     4     3
-1.0132200000e-05     1     8     4     4
 3.4663042000e-03     1     8     4     5
 6.3786452000e-03     1     8     4     6
-3.1449500000e-05     1     8     4     7
-1.4872433000e-03     1     8     4     9
-6.7212000000e-06     1     8     5     1
 7.2493000000e-06     1     8     5     2
-1.4159212500e-02     1     8     5     3
 3.3983857000e-03     1     8     5     4
 7.4859300000e-05     1     8     5     5
 2.6946000000e-06     1     8     5     6
-1.0103000000e-06     1     8     5     7
-3.3558700000e-05     1     8     5     9
 6.5345000000e-06     1     8     6     1
-3.6447000000e-06     1     8     6     2
-8.0110793000e-03     1     8     6     3
 1.9233354000e-03     1     8     6     4
-6.6947000000e-06     1     8     6     5
 1.0875700000e-05     1     8     6     6
-7.9730000000e-07     1     8     6     7
 3.6779000000e-06     1     8     6     9
-8.0700000000e-08     1     8     7     1
-7.2160000000e-07     1     8     7     2
 2.1244100000e-05     1     8     7     3
-1.7768500000e-05     1     8     7     4
-4.8150000000e-07     1     8     7     5
-6.4120000000e-07     1     8     7     6
 1.0553400000e-05     1     8     7     7
 6.5456600000e-05     1     8     7     9
-2.4854694420e-01     1     8     8     1
 1.1748815490e-01     1     8     8     2
-1.7797400000e-05     1     8     8     3
 1.2491600000e-05     1     8     8     4
-6.4607606000e-03     1     8     8     5
 1.2845450700e-02     1     8     8     6
-3.6318300000e-05     1     8     8     7
 2.0193290000e-03     1     8     8     9
-3.3504000000e-06     1     8     9     1
-3.8760000000e-07     1     8     9     2
 3.9398961000e-03     1     8     9     3
-1.1895826000e-03     1     8     9     4
-1.6742700000e-05     1     8     9     5
 1.5357000000e-06     1     8     9     6
-6.7900000000e-07     1     8     9     7
 1.5256100000e-05     1     8     9     9
 2.2848118600e-02     1     9     2     1
-1.5621730400e-02     1     9     2     2
 2.2768300000e-05     1     9     2     3
-4.4849700000e-05     1     9     2     4
 3.7100304900e-02     1     9     2     5
-1.6833050000e-03     1     9     2     6
 8.4723000000e-06     1     9     2     7
-1.7811000000e-06     1     9     2     8
-5.7725200000e-05     1     9     3     1
 3.3782800000e-05     1     9     3     2
 1.1874435300e-02     1     9     3     3
-1.2631025000e-03     1     9     3     4
-1.0759720000e-04     1     9     3     5
 1.0489800000e-05     1     9     3     6
-3.6949930000e-04     1     9     3     7
-3.6976438000e-03     1     9     3     8
 1.0890520000e-04     1     9     4     1
-6.3485800000e-05     1     9     4     2
-1.2631324000e-03     1     9     4     3
 1.3408870700e-02     1     9     4     4
 1.9515410000e-04     1     9     4     5
-3.3080600000e-05     1     9     4     6
-4.0446103000e-03     1     9     4     7
 1.4872433000e-03     1     9     4     8
-8.0059127100e-02     1     9     5     1
 5.2600784500e-02     1     9     5     2
-1.1078010000e-04     1     9     5     3
 2.0216350000e-04     1     9     5     4
-2.1248246300e-02     1     9     5     5
 2.7370428200e-02     1     9     5     6
-1.4034310000e-04     1     9     5     7
 3.3558700000e-05     1     9     5     8
 1.6523859000e-03     1     9     6     1
-1.9275697000e-03     1     9     6     2
 1.2355300000e-05     1     9     6     3
-1.6959000000e-05     1     9     6     4
 1.8631956900e-02     1     9     6     5
-3.9711305000e-03     1     9     6     6
 1.0470500000e-05     1     9     6     7
-3.6779000000e-06     1     9     6     8
-5.2747000000e-06     1     9     7     1
 1.2027900000e-05     1     9     7     2
 3.5497640000e-04     1     9     7     3
 4.5512000000e-06     1     9     7     4
-8.7578300000e-05     1     9     7     5
 9.4986000000e-06     1     9     7     6
-1.9960496000e-03     1     9     7     7
-6.5456600000e-05     1     9     7     8
-3.3504000000e-06     1     9     8     1
-2.1687000000e-06     1     9     8     2
 2.4225230000e-04     1     9     8     3
 2.9766070000e-04     1     9     8     4
 1.6816000000e-05     1     9     8     5
-2.1422000000e-06     1     9     8     6
-6.6135600000e-05     1     9     8     7
-2.0193290000e-03     1     9     8     8
-2.5086532070e-01     1     9     9     1
 1.2149058780e-01     1     9     9     2
 9.9246000000e-06     1     9     9     3
-1.9630900000e-05     1     9     9     4
-3.2919490000e-03     1     9     9     5
 1.0699603800e-02     1     9     9     6
-2.2803200000e-05     1     9     9     7
-1.5256100000e-05     1     9     9     8
-1.3670616660e-01     2     1     1     2
-1.0269000000e-06     2     1     1     3
 1.3031000000e-06     2     1     1     4
-2.8173217000e-03     2     1     1     5
-1.0140660340e-01     2     1     1     6
 3.0424840000e-04     2     1     1     7
 4.8424900000e-05     2     1     1     8
 2.2848118600e-02     2     1     1     9
-4.4162000000e-06     2     1     3     2
-1.0261449060e-01     2     1     3     3
-1.3320000000e-07     2     1     3     4
-1.1269000000e-06     2     1     3     5
 1.4245800000e-05     2     1     3     6
 3.0316164000e-03     2     1     3     7
 1.2642394900e-02     2     1     3     8
-1.1014500000e-05     2     1     3     9
 6.2506000000e-06     2     1     4     2
 1.3620000000e-07     2     1     4     3
-1.0261213810e-01     2     1     4     4
 1.4549000000e-06     2     1     4     5
 3.7818800000e-05     2     1     4     6
 1.2643626200e-02     2     1     4     7
-3.0318679000e-03     2     1     4     8
 1.8636100000e-05     2     1     4     9
-5.1827619000e-03     2     1     5     2
-3.5940000000e-07     2     1     5     3
 4.3010000000e-07     2     1     5     4
-1.0918527990e-01     2     1     5     5
-2.5887941000e-03     2     1     5     6
 5.7743000000e-06     2     1     5     7
 2.7179000000e-06     2     1     5     8
-1.5500479600e-02     2     1     5     9
-6.1259160500e-02     2     1     6     2
 6.4309000000e-05     2     1     6     3
 1.5581070000e-04     2     1     6     4
-1.0001336100e-02     2     1     6     5
-1.1752307920e-01     2     1     6     6
 1.3124600000e-05     2     1     6     7
 4.2801000000e-06     2     1     6     8
 2.4426470000e-04     2     1     6     9
 1.8568470000e-04     2     1     7     2
 1.3035072100e-02     2     1     7     3
 5.4326962000e-02     2     1     7     4
 3.6992300000e-05     2     1     7     5
 1.3497000000e-05     2     1     7     6
-1.1748274450e-01     2     1     7     7
-9.2770000000e-07     2     1     7     8
-3.5556000000e-06     2     1     7     9
 2.8851000000e-05     2     1     8     2
 5.4326262800e-02     2     1     8     3
-1.3035273300e-02     2     1     8     4
-7.2493000000e-06     2     1     8     5
 3.6447000000e-06     2     1     8     6
 7.2160000000e-07     2     1     8     7
-1.1748815490e-01     2     1     8     8
 3.8760000000e-07     2     1     8     9
 1.5621730400e-02     2     1     9     2
-3.3782800000e-05     2     1     9     3
 6.3485800000e-05     2     1     9     4
-5.2600784500e-02     2     1     9     5
 1.9275697000e-03     2     1     9     6
-1.2027900000e-05     2     1     9     7
 2.1687000000e-06     2     1     9     8
-1.2149058780e-01     2     1     9     9
 1.3670616660e-01     2     2     1     1
 4.4162000000e-06     2     2     1     3
-6.2506000000e-06     2     2     1     4
 5.1827619000e-03     2     2     1     5
 6.1259160500e-02     2     2     1     6
-1.8568470000e-04     2     2     1     7
-2.8851000000e-05     2     2     1     8
-1.5621730400e-02     2     2     1     9
 4.4162000000e-06     2     2     3     1
 1.7699787140e-01     2     2     3     3
-1.4000000000e-08     2     2     3     4
 9.7312000000e-06     2     2     3     5
-1.0453030000e-04     2     2     3     6
-2.1195743700e-02     2     2     3     7
-8.8334144000e-02     2     2     3     8
 5.3575000000e-05     2     2     3     9
-6.2506000000e-06     2     2     4     1
-1.4000000000e-08     2     2     4     3
 1.7699060380e-01     2     2     4     4
-1.2946700000e-05     2     2     4     5
-2.5649460000e-04     2     2     4     6
-8.8338133300e-02     2     2     4     7
 2.1196234200e-02     2     2     4     8
-1.0434070000e-04     2     2     4     9
 5.1827619000e-03     2     2     5     1
 9.7312000000e-06     2     2     5     3
-1.2946700000e-05     2     2     5     4
 2.0338004370e-01     2     2     5     5
 1.5234256100e-02     2     2     5     6
-6.0588700000e-05     2     2     5     7
 1.6322200000e-05     2     2     5     8
 7.4954718700e-02     2     2     5     9
 6.1259160500e-02     2     2     6     1
-1.0453030000e-04     2     2     6     3
-2.5649460000e-04     2     2     6     4
 1.5234256100e-02     2     2     6     5
 1.4689929980e-01     2     2     6     6
 7.9364300000e-05     2     2     6     7
 1.1427000000e-05     2     2     6     8
 2.7163226000e-03     2     2     6     9
-1.8568470000e-04     2     2     7     1
-2.1195743700e-02     2     2     7     3
-8.8338133300e-02     2     2     7     4
-6.0588700000e-05     2     2     7     5
 7.9364300000e-05     2     2     7     6
 1.7947227200e-01     2     2     7     7
-3.3400000000e-07     2     2     7     8
-3.4317500000e-05     2     2     7     9
-2.8851000000e-05     2     2     8     1
-8.8334144000e-02     2     2     8     3
 2.1196234200e-02     2     2     8     4
 1.6322200000e-05     2     2     8     5
 1.1427000000e-05     2     2     8     6
-3.3400000000e-07     2     2     8     7
 1.7947972740e-01     2     2     8     8
 2.0840500000e-05     2     2     8     9
-1.5621730400e-02     2     2     9     1
 5.3575000000e-05     2     2     9     3
-1.0434070000e-04     2     2     9     4
 7.4954718700e-02     2     2     9     5
 2.7163226000e-03     2     2     9     6
-3.4317500000e-05     2     2     9     7
 2.0840500000e-05     2     2     9     8
 1.8053192310e-01     2     2     9     9
 1.0269000000e-06     2     3     1     1
-4.4162000000e-06     2     3     1     2
-2.6940000000e-07     2     3     1     4
-7.6750000000e-07     2     3     1     5
-5.0063200000e-05     2     3     1     6
-1.0003455700e-02     2     3     1     7
-4.1683867900e-02     2     3     1     8
 2.2768300000e-05     2     3     1     9