&FCI NORB=  9,NELEC=  2,MS2=0,
 ORBSYM=1,1,1,1,1,1,1,1,1
 ISYM=1,
&END
 1.2902475500e-02     1     1     2     2
 3.9505887000e-03     1     1     2     3
 3.4269900000e-05     1     1     2     4
-1.6836400000e-05     1     1     2     5
-6.0402989800e-02     1     1     2     6
 3.0207900000e-04     1     1     2     7
-6.7846230000e-04     1     1     2     8
-2.4167605600e-02     1     1     2     9
 3.9505887000e-03     1     1     3     2
 9.3536015100e-02     1     1     3     3
-8.2732000000e-06     1     1     3     4
 2.7664000000e-06     1     1     3     5
 4.5329264000e-03     1     1     3     6
 1.1639234000e-03     1     1     3     7
-1.6351284000e-03     1     1     3     8
-6.3329376100e-02     1     1     3     9
 3.4269900000e-05     1     1     4     2
-8.2732000000e-06     1     1     4     3
 9.7657298700e-02     1     1     4     4
 3.3790000000e-07     1     1     4     5
 3.1026100000e-05     1     1     4     6
-5.2664777600e-02     1     1     4     7
-3.3948172800e-02     1     1     4     8
-8.3122900000e-05     1     1     4     9
-1.6836400000e-05     1     1     5     2
 2.7664000000e-06     1     1     5     3
 3.3790000000e-07     1     1     5     4
 9.7651193600e-02     1     1     5     5
-1.2394400000e-05     1     1     5     6
 3.3931244400e-02     1     1     5     7
-5.2635491300e-02     1     1     5     8
 2.0337448000e-03     1     1     5     9
-6.0402989800e-02     1     1     6     2
 4.5329264000e-03     1     1     6     3
 3.1026100000e-05     1     1     6     4
-1.2394400000e-05     1     1     6     5
 1.1334340730e-01     1     1     6     6
 9.6988200000e-05     1     1     6     7
-2.1660580000e-04     1     1     6     8
-7.8148591000e-03     1     1     6     9
 3.0207900000e-04     1     1     7     2
 1.1639234000e-03     1     1     7     3
-5.2664777600e-02     1     1     7     4
 3.3931244400e-02     1     1     7     5
 9.6988200000e-05     1     1     7     6
 1.1791114040e-01     1     1     7     7
-5.3475000000e-06     1     1     7     8
-4.6810000000e-05     1     1     7     9
-6.7846230000e-04     1     1     8     2
-1.6351284000e-03     1     1     8     3
-3.3948172800e-02     1     1     8     4
-5.2635491300e-02     1     1     8     5
-2.1660580000e-04     1     1     8     6
-5.3475000000e-06     1     1     8     7
 1.1791307820e-01     1     1     8     8
 4.9326400000e-05     1     1     8     9
-2.4167605600e-02     1     1     9     2
-6.3329376100e-02     1     1     9     3
-8.3122900000e-05     1     1     9     4
 2.0337448000e-03     1     1     9     5
-7.8148591000e-03     1     1     9     6
-4.6810000000e-05     1     1     9     7
 4.9326400000e-05     1     1     9     8
 1.2376181710e-01     1     1     9     9
-1.2902475500e-02     1     2     2     1
 2.5546128500e-02     1     2     2     3
 1.4735970000e-04     1     2     2     4
-3.9598400000e-05     1     2     2     5
 4.3416364200e-02     1     2     2     6
-7.2615100000e-05     1     2     2     7
 1.7731610000e-04     1     2     2     8
 6.2940784000e-03     1     2     2     9
-3.9505887000e-03     1     2     3     1
-8.1797219000e-02     1     2     3     3
-1.6479000000e-05     1     2     3     4
 5.6336000000e-06     1     2     3     5
 4.9745482000e-03     1     2     3     6
-9.4154850000e-04     1     2     3     7
 1.3149198000e-03     1     2     3     8
 5.0606758700e-02     1     2     3     9
-3.4269900000e-05     1     2     4     1
-1.5670400000e-05     1     2     4     3
-8.1425272900e-02     1     2     4     4
-2.7270000000e-07     1     2     4     5
 2.5098900000e-05     1     2     4     6
 4.3353817600e-02     1     2     4     7
 2.7947340300e-02     1     2     4     8
 6.1162100000e-05     1     2     4     9
 1.6836400000e-05     1     2     5     1
 4.8028000000e-06     1     2     5     3
-6.6600000000e-08     1     2     5     4
-8.1421827800e-02     1     2     5     5
-3.8954000000e-06     1     2     5     6
-2.7932483700e-02     1     2     5     7
 4.3332278300e-02     1     2     5     8
-1.6598184000e-03     1     2     5     9
 6.0402989800e-02     1     2     6     1
 6.4216850000e-04     1     2     6     3
-1.2339000000e-06     1     2     6     4
 3.6423000000e-06     1     2     6     5
-7.3262955900e-02     1     2     6     6
-1.8793430000e-04     1     2     6     7
 4.2363040000e-04     1     2     6     8
 1.5594950200e-02     1     2     6     9
-3.0207900000e-04     1     2     7     1
-5.3465500000e-04     1     2     7     3
 2.5259217400e-02     1     2     7     4
-1.6273371000e-02     1     2     7     5
-8.2643400000e-05     1     2     7     6
-7.9699199800e-02     1     2     7     7
 3.2700000000e-06     1     2     7     8
 2.7265300000e-05     1     2     7     9
 6.7846230000e-04     1     2     8     1
 7.3414120000e-04     1     2     8     3
 1.6281554300e-02     1     2     8     4
 2.5246690500e-02     1     2     8     5
 1.8568100000e-04     1     2     8     6
 3.7282000000e-06     1     2     8     7
-7.9699137200e-02     1     2     8     8
-1.4898200000e-05     1     2     8     9
 2.4167605600e-02     1     2     9     1
 2.8381586100e-02     1     2     9     3
 2.8369000000e-05     1     2     9     4
-9.6580060000e-04     1     2     9     5
 6.9809380000e-03     1     2     9     6
 2.6661800000e-05     1     2     9     7
-1.5420400000e-05     1     2     9     8
-8.3321398600e-02     1     2     9     9
-3.9505887000e-03     1     3     2     1
-2.5546128500e-02     1     3     2     2
-8.0860000000e-07     1     3     2     4
 8.3080000000e-07     1     3     2     5
 4.3323797000e-03     1     3     2     6
-4.0689350000e-04     1     3     2     7
 5.8077860000e-04     1     3     2     8
 2.2225172600e-02     1     3     2     9
-9.3536015100e-02     1     3     3     1
 8.1797219000e-02     1     3     3     2
 2.2654340000e-04     1     3     3     4
-7.0586000000e-05     1     3     3     5
-2.9918574600e-02     1     3     3     6
-1.3707550000e-04     1     3     3     7
 2.6166160000e-04     1     3     3     8
 1.0380774200e-02     1     3     3     9
 8.2732000000e-06     1     3     4     1
 1.5670400000e-05     1     3     4     2
-3.7722419300e-02     1     3     4     4
-1.0940000000e-07     1     3     4     5
-6.7992000000e-06     1     3     4     6
 2.2911899000e-03     1     3     4     7
 1.4746161000e-03     1     3     4     8
 4.5408000000e-06     1     3     4     9
-2.7664000000e-06     1     3     5     1
-4.8028000000e-06     1     3     5     2
 1.0300000000e-07     1     3     5     4
-3.7721748800e-02     1     3     5     5
 3.0419000000e-06     1     3     5     6
-1.4762587000e-03     1     3     5     7
 2.2870071000e-03     1     3     5     8
-1.1264320000e-04     1     3     5     9
-4.5329264000e-03     1     3     6     1
-6.4216850000e-04     1     3     6     2
-5.1640000000e-07     1     3     6     4
 6.3300000000e-07     1     3     6     5
-3.7141908700e-02     1     3     6     6
 3.0041970000e-04     1     3     6     7
-4.1546720000e-04     1     3     6     8
-1.6535678000e-02     1     3     6     9
-1.1639234000e-03     1     3     7     1
 5.3465500000e-04     1     3     7     2
 2.4599160000e-03     1     3     7     4
-1.5851599000e-03     1     3     7     5
-1.7623970000e-04     1     3     7     6
-3.9675719600e-02     1     3     7     7
-9.3070000000e-07     1     3     7     8
-3.8732400000e-05     1     3     7     9
 1.6351284000e-03     1     3     8     1
-7.3414120000e-04     1     3     8     2
 1.5852637000e-03     1     3     8     4
 2.4584202000e-03     1     3     8     5
 2.3688280000e-04     1     3     8     6
-5.8060000000e-07     1     3     8     7
-3.9674578100e-02     1     3     8     8
 5.4812600000e-05     1     3     8     9
 6.3329376100e-02     1     3     9     1
-2.8381586100e-02     1     3     9     2
-1.4838500000e-05     1     3     9     4
-8.8153300000e-05     1     3     9     5
 8.8585013000e-03     1     3     9     6
-2.4966200000e-05     1     3     9     7
 6.0536800000e-05     1     3     9     8
-3.7939067500e-02     1     3     9     9
-3.4269900000e-05     1     4     2     1
-1.4735970000e-04     1     4     2     2
 8.0860000000e-07     1     4     2     3
-2.0610000000e-07     1     4     2     5
 2.6332800000e-05     1     4     2     6
 1.8094600200e-02     1     4     2     7
 1.1665786000e-02     1     4     2     8
 3.2793100000e-05     1     4     2     9
 8.2732000000e-06     1     4     3     1
 1.6479000000e-05     1     4     3     2
-2.2654340000e-04     1     4     3     3
-2.1240000000e-07     1     4     3     5
-6.2828000000e-06     1     4     3     6
-1.6872610000e-04     1     4     3     7
-1.1064760000e-04     1     4     3     8
 1.9379300000e-05     1     4     3     9
-9.7657298700e-02     1     4     4     1
 8.1425272900e-02     1     4     4     2
 3.7722419300e-02     1     4     4     3
-7.1306200000e-05     1     4     4     5
-2.9475611100e-02     1     4     4     6
-6.8483000000e-05     1     4     4     7
 2.0461710000e-04     1     4     4     8
 6.6490364000e-03     1     4     4     9
-3.3790000000e-07     1     4     5     1
 6.6600000000e-08     1     4     5     2
-1.0300000000e-07     1     4     5     3
-2.2897870000e-04     1     4     5     5
-1.0200000000e-07     1     4     5     6
-9.9171000000e-06     1     4     5     7
 2.0591100000e-05     1     4     5     8
-9.1730000000e-07     1     4     5     9
-3.1026100000e-05     1     4     6     1
 1.2339000000e-06     1     4     6     2
 5.1640000000e-07     1     4     6     3
 8.9400000000e-08     1     4     6     5
-2.2579480000e-04     1     4     6     6
-1.4105811000e-02     1     4     6     7
-9.0944235000e-03     1     4     6     8
-1.6483600000e-05     1     4     6     9
 5.2664777600e-02     1     4     7     1
-2.5259217400e-02     1     4     7     2
-2.4599160000e-03     1     4     7     3
-4.9317000000e-06     1     4     7     5
 8.3914008000e-03     1     4     7     6
-2.5355100000e-04     1     4     7     7
 4.6089800000e-05     1     4     7     8
 1.5244793000e-03     1     4     7     9
 3.3948172800e-02     1     4     8     1
-1.6281554300e-02     1     4     8     2
-1.5852637000e-03     1     4     8     3
 1.9021700000e-05     1     4     8     5
 5.4083710000e-03     1     4     8     6
-1.7733000000e-05     1     4     8     7
-2.1350410000e-04     1     4     8     8
 9.8230580000e-04     1     4     8     9
 8.3122900000e-05     1     4     9     1
-2.8369000000e-05     1     4     9     2
 1.4838500000e-05     1     4     9     3
-7.8670000000e-07     1     4     9     5
 7.4812000000e-06     1     4     9     6
-2.5424920000e-04     1     4     9     7
-1.6364990000e-04     1     4     9     8
-2.3811510000e-04     1     4     9     9
 1.6836400000e-05     1     5     2     1
 3.9598400000e-05     1     5     2     2
-8.3080000000e-07     1     5     2     3
 2.0610000000e-07     1     5     2     4
-7.5377000000e-06     1     5     2     6
-1.1659112700e-02     1     5     2     7
 1.8085587800e-02     1     5     2     8
-6.9401780000e-04     1     5     2     9
-2.7664000000e-06     1     5     3     1
-5.6336000000e-06     1     5     3     2
 7.0586000000e-05     1     5     3     3
 2.1240000000e-07     1     5     3     4
 2.4089000000e-06     1     5     3     6
 1.0890120000e-04     1     5     3     7
-1.7141310000e-04     1     5     3     8
-2.4489900000e-05     1     5     3     9
-3.3790000000e-07     1     5     4     1
 2.7270000000e-07     1     5     4     2
 1.0940000000e-07     1     5     4     3
 7.1306200000e-05     1     5     4     4
-1.9140000000e-07     1     5     4     6
-4.9854000000e-06     1     5     4     7
 1.5694000000e-06     1     5     4     8
-1.3060000000e-07     1     5     4     9
-9.7651193600e-02     1     5     5     1
 8.1421827800e-02     1     5     5     2
 3.7721748800e-02     1     5     5     3
 2.2897870000e-04     1     5     5     4
-2.9474088700e-02     1     5     5     6
-7.4847800000e-05     1     5     5     7
 1.9355590000e-04     1     5     5     8
 6.6501931000e-03     1     5     5     9
 1.2394400000e-05     1     5     6     1
-3.6423000000e-06     1     5     6     2
-6.3300000000e-07     1     5     6     3
-8.9400000000e-08     1     5     6     4
 7.0382900000e-05     1     5     6     6
 9.0895349000e-03     1     5     6     7
-1.4099434700e-02     1     5     6     8
 5.5864220000e-04     1     5     6     9
-3.3931244400e-02     1     5     7     1
 1.6273371000e-02     1     5     7     2
 1.5851599000e-03     1     5     7     3
 4.9317000000e-06     1     5     7     4
-5.4059565000e-03     1     5     7     6
 8.3068700000e-05     1     5     7     7
-2.4103400000e-05     1     5     7     8
-9.8241350000e-04     1     5     7     9
 5.2635491300e-02     1     5     8     1
-2.5246690500e-02     1     5     8     2
-2.4584202000e-03     1     5     8     3
-1.9021700000e-05     1     5     8     4
 8.3873927000e-03     1     5     8     6
-1.3581900000e-05     1     5     8     7
 1.1131370000e-04     1     5     8     8
 1.5234571000e-03     1     5     8     9
-2.0337448000e-03     1     5     9     1
 9.6580060000e-04     1     5     9     2
 8.8153300000e-05     1     5     9     3
 7.8670000000e-07     1     5     9     4
-3.0851900000e-04     1     5     9     6
 1.6432070000e-04     1     5     9     7
-2.5546180000e-04     1     5     9     8
 2.6552600000e-05     1     5     9     9
 6.0402989800e-02     1     6     2     1
-4.3416364200e-02     1     6     2     2
-4.3323797000e-03     1     6     2     3
-2.6332800000e-05     1     6     2     4
 7.5377000000e-06     1     6     2     5
-1.0529090000e-04     1     6     2     7
 2.3794940000e-04     1     6     2     8
 8.6140122000e-03     1     6     2     9
-4.5329264000e-03     1     6     3     1
-4.9745482000e-03     1     6     3     2
 2.9918574600e-02     1     6     3     3
 6.2828000000e-06     1     6     3     4
-2.4089000000e-06     1     6     3     5
 4.7665940000e-04     1     6     3     7
-6.5235000000e-04     1     6     3     8
-2.5394179300e-02     1     6     3     9
-3.1026100000e-05     1     6     4     1
-2.5098900000e-05     1     6     4     2
 6.7992000000e-06     1     6     4     3
 2.9475611100e-02     1     6     4     4
 1.9140000000e-07     1     6     4     5
-2.2497211800e-02     1     6     4     7
-1.4502794500e-02     1     6     4     8
-2.3964800000e-05     1     6     4     9
 1.2394400000e-05     1     6     5     1
 3.8954000000e-06     1     6     5     2
-3.0419000000e-06     1     6     5     3
 1.0200000000e-07     1     6     5     4
 2.9474088700e-02     1     6     5     5
 1.4495491400e-02     1     6     5     7
-2.2486827400e-02     1     6     5     8
 8.6716120000e-04     1     6     5     9
-1.1334340730e-01     1     6     6     1
 7.3262955900e-02     1     6     6     2
 3.7141908700e-02     1     6     6     3
 2.2579480000e-04     1     6     6     4
-7.0382900000e-05     1     6     6     5
 1.1954800000e-05     1     6     6     7
-2.5843400000e-05     1     6     6     8
-1.4569181000e-03     1     6     6     9
-9.6988200000e-05     1     6     7     1
 8.2643400000e-05     1     6     7     2
 1.7623970000e-04     1     6     7     3
-8.3914008000e-03     1     6     7     4
 5.4059565000e-03     1     6     7     5
 1.6719127600e-02     1     6     7     7
-1.6518000000e-06     1     6     7     8
-3.6167200000e-05     1     6     7     9
 2.1660580000e-04     1     6     8     1
-1.8568100000e-04     1     6     8     2
-2.3688280000e-04     1     6     8     3
-5.4083710000e-03     1     6     8     4
-8.3873927000e-03     1     6     8     5
-2.3207000000e-06     1     6     8     7
 1.6720254000e-02     1     6     8     8
 6.1306200000e-05     1     6     8     9
 7.8148591000e-03     1     6     9     1
-6.9809380000e-03     1     6     9     2
-8.8585013000e-03     1     6     9     3
-7.4812000000e-06     1     6     9     4
 3.0851900000e-04     1     6     9     5
-3.6649100000e-05     1     6     9     7
 6.3470700000e-05     1     6     9     8
 2.0163082600e-02     1     6     9     9
-3.0207900000e-04     1     7     2     1
 7.2615100000e-05     1     7     2     2
 4.0689350000e-04     1     7     2     3
-1.8094600200e-02     1     7     2     4
 1.1659112700e-02     1     7     2     5
 1.0529090000e-04     1     7     2     6
-4.5820000000e-07     1     7     2     8
 6.0350000000e-07     1     7     2     9
-1.1639234000e-03     1     7     3     1
 9.4154850000e-04     1     7     3     2
 1.3707550000e-04     1     7     3     3
 1.6872610000e-04     1     7     3     4
-1.0890120000e-04     1     7     3     5
-4.7665940000e-04     1     7     3     6
-3.5010000000e-07     1     7     3     8
-1.3766200000e-05     1     7     3     9
 5.2664777600e-02     1     7     4     1
-4.3353817600e-02     1     7     4     2
-2.2911899000e-03     1     7     4     3
 6.8483000000e-05     1     7     4     4
 4.9854000000e-06     1     7     4     5
 2.2497211800e-02     1     7     4     6
 6.3822800000e-05     1     7     4     8
 1.7787285000e-03     1     7     4     9
-3.3931244400e-02     1     7     5     1
 2.7932483700e-02     1     7     5     2
 1.4762587000e-03     1     7     5     3
 9.9171000000e-06     1     7     5     4
 7.4847800000e-05     1     7     5     5
-1.4495491400e-02     1     7     5     6
-1.0521500000e-05     1     7     5     8
-1.1467342000e-03     1     7     5     9
-9.6988200000e-05     1     7     6     1
 1.8793430000e-04     1     7     6     2
-3.0041970000e-04     1     7     6     3
 1.4105811000e-02     1     7     6     4
-9.0895349000e-03     1     7     6     5
-1.1954800000e-05     1     7     6     6
 6.6890000000e-07     1     7     6     8
 4.8190000000e-07     1     7     6     9
-1.1791114040e-01     1     7     7     1
 7.9699199800e-02     1     7     7     2
 3.9675719600e-02     1     7     7     3
 2.5355100000e-04     1     7     7     4
-8.3068700000e-05     1     7     7     5
-1.6719127600e-02     1     7     7     6
 1.4194020000e-04     1     7     7     8
 4.9573059000e-03     1     7     7     9
 5.3475000000e-06     1     7     8     1
-3.7282000000e-06     1     7     8     2
 5.8060000000e-07     1     7     8     3
 1.7733000000e-05     1     7     8     4
 1.3581900000e-05     1     7     8     5
 2.3207000000e-06     1     7     8     6
 5.8304700000e-05     1     7     8     8
 1.4100000000e-07     1     7     8     9
 4.6810000000e-05     1     7     9     1
-2.6661800000e-05     1     7     9     2
 2.4966200000e-05     1     7     9     3
 2.5424920000e-04     1     7     9     4
-1.6432070000e-04     1     7     9     5
 3.6649100000e-05     1     7     9     6
-1.7810000000e-07     1     7     9     8
 5.4683100000e-05     1     7     9     9
 6.7846230000e-04     1     8     2     1
-1.7731610000e-04     1     8     2     2
-5.8077860000e-04     1     8     2     3
-1.1665786000e-02     1     8     2     4
-1.8085587800e-02     1     8     2     5
-2.3794940000e-04     1     8     2     6
 4.5820000000e-07     1     8     2     7
 5.2220000000e-07     1     8     2     9
 1.6351284000e-03     1     8     3     1
-1.3149198000e-03     1     8     3     2
-2.6166160000e-04     1     8     3     3
 1.1064760000e-04     1     8     3     4
 1.7141310000e-04     1     8     3     5
 6.5235000000e-04     1     8     3     6
 3.5010000000e-07     1     8     3     7
-5.7242000000e-06     1     8     3     9
 3.3948172800e-02     1     8     4     1
-2.7947340300e-02     1     8     4     2
-1.4746161000e-03     1     8     4     3
-2.0461710000e-04     1     8     4     4
-1.5694000000e-06     1     8     4     5
 1.4502794500e-02     1     8     4     6
-6.3822800000e-05     1     8     4     7
 1.1459557000e-03     1     8     4     9
 5.2635491300e-02     1     8     5     1
-4.3332278300e-02     1     8     5     2
-2.2870071000e-03     1     8     5     3
-2.0591100000e-05     1     8     5     4
-1.9355590000e-04     1     8     5     5
 2.2486827400e-02     1     8     5     6
 1.0521500000e-05     1     8     5     7
 1.7789189000e-03     1     8     5     9
 2.1660580000e-04     1     8     6     1
-4.2363040000e-04     1     8     6     2
 4.1546720000e-04     1     8     6     3
 9.0944235000e-03     1     8     6     4
 1.4099434700e-02     1     8     6     5
 2.5843400000e-05     1     8     6     6
-6.6890000000e-07     1     8     6     7
-2.1645000000e-06     1     8     6     9
 5.3475000000e-06     1     8     7     1
-3.2700000000e-06     1     8     7     2
 9.3070000000e-07     1     8     7     3
-4.6089800000e-05     1     8     7     4
 2.4103400000e-05     1     8     7     5
 1.6518000000e-06     1     8     7     6
-1.4194020000e-04     1     8     7     7
 3.1910000000e-07     1     8     7     9
-1.1791307820e-01     1     8     8     1
 7.9699137200e-02     1     8     8     2
 3.9674578100e-02     1     8     8     3
 2.1350410000e-04     1     8     8     4
-1.1131370000e-04     1     8     8     5
-1.6720254000e-02     1     8     8     6
-5.8304700000e-05     1     8     8     7
 4.9575512000e-03     1     8     8     9
-4.9326400000e-05     1     8     9     1
 1.5420400000e-05     1     8     9     2
-6.0536800000e-05     1     8     9     3
 1.6364990000e-04     1     8     9     4
 2.5546180000e-04     1     8     9     5
-6.3470700000e-05     1     8     9     6
 1.7810000000e-07     1     8     9     7
-1.2903190000e-04     1     8     9     9
 2.4167605600e-02     1     9     2     1
-6.2940784000e-03     1     9     2     2
-2.2225172600e-02     1     9     2     3
-3.2793100000e-05     1     9     2     4
 6.9401780000e-04     1     9     2     5
-8.6140122000e-03     1     9     2     6
-6.0350000000e-07     1     9     2     7
-5.2220000000e-07     1     9     2     8
 6.3329376100e-02     1     9     3     1
-5.0606758700e-02     1     9     3     2
-1.0380774200e-02     1     9     3     3
-1.9379300000e-05     1     9     3     4
 2.4489900000e-05     1     9     3     5
 2.5394179300e-02     1     9     3     6
 1.3766200000e-05     1     9     3     7
 5.7242000000e-06     1     9     3     8
 8.3122900000e-05     1     9     4     1
-6.1162100000e-05     1     9     4     2
-4.5408000000e-06     1     9     4     3
-6.6490364000e-03     1     9     4     4
 1.3060000000e-07     1     9     4     5
 2.3964800000e-05     1     9     4     6
-1.7787285000e-03     1     9     4     7
-1.1459557000e-03     1     9     4     8
-2.0337448000e-03     1     9     5     1
 1.6598184000e-03     1     9     5     2
 1.1264320000e-04     1     9     5     3
 9.1730000000e-07     1     9     5     4
-6.6501931000e-03     1     9     5     5
-8.6716120000e-04     1     9     5     6
 1.1467342000e-03     1     9     5     7
-1.7789189000e-03     1     9     5     8
 7.8148591000e-03     1     9     6     1
-1.5594950200e-02     1     9     6     2
 1.6535678000e-02     1     9     6     3
 1.6483600000e-05     1     9     6     4
-5.5864220000e-04     1     9     6     5
 1.4569181000e-03     1     9     6     6
-4.8190000000e-07     1     9     6     7
 2.1645000000e-06     1     9     6     8
 4.6810000000e-05     1     9     7     1
-2.7265300000e-05     1     9     7     2
 3.8732400000e-05     1     9     7     3
-1.5244793000e-03     1     9     7     4
 9.8241350000e-04     1     9     7     5
 3.6167200000e-05     1     9     7     6
-4.9573059000e-03     1     9     7     7
-3.1910000000e-07     1     9     7     8
-4.9326400000e-05     1     9     8     1
 1.4898200000e-05     1     9     8     2
-5.4812600000e-05     1     9     8     3
-9.8230580000e-04     1     9     8     4
-1.5234571000e-03     1     9     8     5
-6.1306200000e-05     1     9     8     6
-1.4100000000e-07     1     9     8     7
-4.9575512000e-03     1     9     8     8
-1.2376181710e-01     1     9     9     1
 8.3321398600e-02     1     9     9     2
 3.7939067500e-02     1     9     9     3
 2.3811510000e-04     1     9     9     4
-2.6552600000e-05     1     9     9     5
-2.0163082600e-02     1     9     9     6
-5.4683100000e-05     1     9     9     7
 1.2903190000e-04     1     9     9     8
-1.2902475500e-02     2     1     1     2
-3.9505887000e-03     2     1     1     3
-3.4269900000e-05     2     1     1     4
 1.6836400000e-05     2     1     1     5
 6.0402989800e-02     2     1     1     6
-3.0207900000e-04     2     1     1     7
 6.7846230000e-04     2     1     1     8
 2.4167605600e-02     2     1     1     9
 2.5546128500e-02     2     1     3     2
-8.1797219000e-02     2     1     3     3
-1.5670400000e-05     2     1     3     4
 4.8028000000e-06     2     1     3     5
 6.4216850000e-04     2     1     3     6
-5.3465500000e-04     2     1     3     7
 7.3414120000e-04     2     1     3     8
 2.8381586100e-02     2     1     3     9
 1.4735970000e-04     2     1     4     2
-1.6479000000e-05     2     1     4     3
-8.1425272900e-02     2     1     4     4
-6.6600000000e-08     2     1     4     5
-1.2339000000e-06     2     1     4     6
 2.5259217400e-02     2     1     4     7
 1.6281554300e-02     2     1     4     8
 2.8369000000e-05     2     1     4     9
-3.9598400000e-05     2     1     5     2
 5.6336000000e-06     2     1     5     3
-2.7270000000e-07     2     1     5     4
-8.1421827800e-02     2     1     5     5
 3.6423000000e-06     2     1     5     6
-1.6273371000e-02     2     1     5     7
 2.5246690500e-02     2     1     5     8
-9.6580060000e-04     2     1     5     9
 4.3416364200e-02     2     1     6     2
 4.9745482000e-03     2     1     6     3
 2.5098900000e-05     2     1     6     4
-3.8954000000e-06     2     1     6     5
-7.3262955900e-02     2     1     6     6
-8.2643400000e-05     2     1     6     7
 1.8568100000e-04     2     1     6     8
 6.9809380000e-03     2     1     6     9
-7.2615100000e-05     2     1     7     2
-9.4154850000e-04     2     1     7     3
 4.3353817600e-02     2     1     7     4
-2.7932483700e-02     2     1     7     5
-1.8793430000e-04     2     1     7     6
-7.9699199800e-02     2     1     7     7
 3.7282000000e-06     2     1     7     8
 2.6661800000e-05     2     1     7     9
 1.7731610000e-04     2     1     8     2
 1.3149198000e-03     2     1     8     3
 2.7947340300e-02     2     1     8     4
 4.3332278300e-02     2     1     8     5
 4.2363040000e-04     2     1     8     6
 3.2700000000e-06     2     1     8     7
-7.9699137200e-02     2     1     8     8
-1.5420400000e-05     2     1     8     9
 6.2940784000e-03     2     1     9     2
 5.0606758700e-02     2     1     9     3
 6.1162100000e-05     2     1     9     4
-1.6598184000e-03     2     1     9     5
 1.5594950200e-02     2     1     9     6
 2.7265300000e-05     2     1     9     7
-1.4898200000e-05     2     1     9     8
-8.3321398600e-02     2     1     9     9
 1.2902475500e-02     2     2     1     1
-2.5546128500e-02     2     2     1     3
-1.4735970000e-04     2     2     1     4
 3.9598400000e-05     2     2     1     5
-4.3416364200e-02     2     2     1     6
 7.2615100000e-05     2     2     1     7
-1.7731610000e-04     2     2     1     8
-6.2940784000e-03     2     2     1     9
-2.5546128500e-02     2     2     3     1
 6.8931624600e-02     2     2     3     3
-1.1726300000e-05     2     2     3     4
 5.2630000000e-06     2     2     3     5
 1.7624855000e-02     2     2     3     6
 7.3590990000e-04     2     2     3     7
-1.0158036000e-03     2     2     3     8
-3.9743905300e-02     2     2     3     9
-1.4735970000e-04     2     2     4     1
-1.1726300000e-05     2     2     4     3
 7.2409620000e-02     2     2     4     4
 2.2790000000e-07     2     2     4     5
 1.1319000000e-04     2     2     4     6
-3.3364073700e-02     2     2     4     7
-2.1505635000e-02     2     2     4     8
-4.3590200000e-05     2     2     4     9
 3.9598400000e-05     2     2     5     1
 5.2630000000e-06     2     2     5     3
 2.2790000000e-07     2     2     5     4
 7.2405478600e-02     2     2     5     5
-4.1025600000e-05     2     2     5     6
 2.1496758100e-02     2     2     5     7
-3.3345330100e-02     2     2     5     8
 1.2948733000e-03     2     2     5     9
-4.3416364200e-02     2     2     6     1
 1.7624855000e-02     2     2     6     3
 1.1319000000e-04     2     2     6     4
-4.1025600000e-05     2     2     6     5
 3.4550613100e-02     2     2     6     6
 4.1494300000e-05     2     2     6     7
-9.0270100000e-05     2     2     6     8
-3.2180930000e-03     2     2     6     9
 7.2615100000e-05     2     2     7     1
 7.3590990000e-04     2     2     7     3
-3.3364073700e-02     2     2     7     4
 2.1496758100e-02     2     2     7     5
 4.1494300000e-05     2     2     7     6
 6.0774539000e-02     2     2     7     7
-3.5816000000e-06     2     2     7     8
-4.1782700000e-05     2     2     7     9
-1.7731610000e-04     2     2     8     1
-1.0158036000e-03     2     2     8     3
-2.1505635000e-02     2     2     8     4
-3.3345330100e-02     2     2     8     5
-9.0270100000e-05     2     2     8     6
-3.5816000000e-06     2     2     8     7
 6.0777362700e-02     2     2     8     8
 6.4147800000e-05     2     2     8     9
-6.2940784000e-03     2     2     9     1
-3.9743905300e-02     2     2     9     3
-4.3590200000e-05     2     2     9     4
 1.2948733000e-03     2     2     9     5
-3.2180930000e-03     2     2     9     6
-4.1782700000e-05     2     2     9     7
 6.4147800000e-05     2     2     9     8
 6.5321609200e-02     2     2     9     9
 3.9505887000e-03     2     3     1     1
 2.5546128500e-02     2     3     1     2
 8.0860000000e-07     2     3     1     4
-8.3080000000e-07     2     3     1     5
-4.3323797000e-03     2     3     1     6
 4.0689350000e-04     2     3     1     7
-5.8077860000e-04     2     3     1     8
-2.2225172600e-02     2     3     1     9