&FCI NORB=  9,NELEC=  2,MS2=0,
 ORBSYM=1,1,1,1,1,1,1,1,1
 ISYM=1,
&END
 1.1291940590e-01     1     1     2     2
 2.0574500000e-04     1     1     2     3
-3.9624680000e-04     1     1     2     4
 1.1525027000e-02     1     1     2     5
 8.9803989000e-02     1     1     2     6
-1.2908890000e-04     1     1     2     7
-5.4372000000e-06     1     1     2     8
-1.0624216400e-02     1     1     2     9
 2.0574500000e-04     1     1     3     2
 1.4041199120e-01     1     1     3     3
-4.2624000000e-06     1     1     3     4
 1.2057520000e-04     1     1     3     5
 8.3444700000e-05     1     1     3     6
 6.0877431000e-02     1     1     3     7
-2.5461843400e-02     1     1     3     8
 1.1507024000e-03     1     1     3     9
-3.9624680000e-04     1     1     4     2
-4.2624000000e-06     1     1     4     3
 1.4043722950e-01     1     1     4     4
-2.3184880000e-04     1     1     4     5
 3.9842500000e-05     1     1     4     6
 2.5482926800e-02     1     1     4     7
 6.0829699000e-02     1     1     4     8
-2.2226672000e-03     1     1     4     9
 1.1525027000e-02     1     1     5     2
 1.2057520000e-04     1     1     5     3
-2.3184880000e-04     1     1     5     4
 1.4835646950e-01     1     1     5     5
-2.4873000000e-05     1     1     5     6
-2.0143770000e-04     1     1     5     7
 2.4935484000e-03     1     1     5     8
 6.5387145800e-02     1     1     5     9
 8.9803989000e-02     1     1     6     2
 8.3444700000e-05     1     1     6     3
 3.9842500000e-05     1     1     6     4
-2.4873000000e-05     1     1     6     5
 1.9644165560e-01     1     1     6     6
-1.3836900000e-05     1     1     6     7
-1.2013000000e-06     1     1     6     8
 1.7273832000e-03     1     1     6     9
-1.2908890000e-04     1     1     7     2
 6.0877431000e-02     1     1     7     3
 2.5482926800e-02     1     1     7     4
-2.0143770000e-04     1     1     7     5
-1.3836900000e-05     1     1     7     6
 1.9834205510e-01     1     1     7     7
-5.2080000000e-07     1     1     7     8
 2.1118000000e-06     1     1     7     9
-5.4372000000e-06     1     1     8     2
-2.5461843400e-02     1     1     8     3
 6.0829699000e-02     1     1     8     4
 2.4935484000e-03     1     1     8     5
-1.2013000000e-06     1     1     8     6
-5.2080000000e-07     1     1     8     7
 1.9835044150e-01     1     1     8     8
-6.6854500000e-05     1     1     8     9
-1.0624216400e-02     1     1     9     2
 1.1507024000e-03     1     1     9     3
-2.2226672000e-03     1     1     9     4
 6.5387145800e-02     1     1     9     5
 1.7273832000e-03     1     1     9     6
 2.1118000000e-06     1     1     9     7
-6.6854500000e-05     1     1     9     8
 2.2678422260e-01     1     1     9     9
-1.1291940590e-01     1     2     2     1
 6.7300330000e-04     1     2     2     3
-1.2952287000e-03     1     2     2     4
 3.7282930000e-02     1     2     2     5
 5.6967580400e-02     1     2     2     6
-7.9402500000e-05     1     2     2     7
-3.3963600000e-05     1     2     2     8
 1.2090774700e-02     1     2     2     9
-2.0574500000e-04     1     2     3     1
 8.5487045500e-02     1     2     3     3
-1.7223000000e-06     1     2     3     4
 4.5106300000e-05     1     2     3     5
-1.7103800000e-04     1     2     3     6
 4.9773183500e-02     1     2     3     7
-2.0816586300e-02     1     2     3     8
 9.2429580000e-04     1     2     3     9
 3.9624680000e-04     1     2     4     1
-1.8296000000e-06     1     2     4     3
 8.5497358400e-02     1     2     4     4
-8.6680300000e-05     1     2     4     5
 4.9373640000e-04     1     2     4     6
 2.0834959900e-02     1     2     4     7
 4.9736348700e-02     1     2     4     8
-1.7853525000e-03     1     2     4     9
-1.1525027000e-02     1     2     5     1
 4.8969700000e-05     1     2     5     3
-9.4065500000e-05     1     2     5     4
 8.8505195900e-02     1     2     5     5
-1.2965234700e-02     1     2     5     6
-1.4792280000e-04     1     2     5     7
 2.0481069000e-03     1     2     5     8
 5.2560001200e-02     1     2     5     9
-8.9803989000e-02     1     2     6     1
-3.1276100000e-05     1     2     6     3
 1.1316980000e-04     1     2     6     4
-2.8480200000e-03     1     2     6     5
 9.5685610600e-02     1     2     6     6
-1.1454200000e-05     1     2     6     7
-1.2898300000e-05     1     2     6     8
 8.6706908000e-03     1     2     6     9
 1.2908890000e-04     1     2     7     1
 1.5819397000e-02     1     2     7     3
 6.6184861000e-03     1     2     7     4
-4.8448800000e-05     1     2     7     5
-1.3017900000e-05     1     2     7     6
 9.4526154500e-02     1     2     7     7
-1.4847000000e-06     1     2     7     8
-8.4978000000e-06     1     2     7     9
 5.4372000000e-06     1     2     8     1
-6.6137860000e-03     1     2     8     3
 1.5804500200e-02     1     2     8     4
 6.4474580000e-04     1     2     8     5
 4.0397000000e-06     1     2     8     6
 3.7510000000e-07     1     2     8     7
 9.4531958600e-02     1     2     8     8
-3.6445800000e-05     1     2     8     9
 1.0624216400e-02     1     2     9     1
 2.8014570000e-04     1     2     9     3
-5.4114440000e-04     1     2     9     4
 1.6062316600e-02     1     2     9     5
-3.5340170000e-04     1     2     9     6
 3.3981000000e-06     1     2     9     7
-2.3481500000e-05     1     2     9     8
 1.1281486730e-01     1     2     9     9
-2.0574500000e-04     1     3     2     1
-6.7300330000e-04     1     3     2     2
 1.0730000000e-07     1     3     2     4
-3.8634000000e-06     1     3     2     5
-1.3976190000e-04     1     3     2     6
 3.3953786500e-02     1     3     2     7
-1.4202800300e-02     1     3     2     8
 6.4415010000e-04     1     3     2     9
-1.4041199120e-01     1     3     3     1
-8.5487045500e-02     1     3     3     2
-1.2902321000e-03     1     3     3     4
 3.7312431000e-02     1     3     3     5
-1.5767514300e-02     1     3     3     6
 2.5953870000e-04     1     3     3     7
-1.3550130000e-04     1     3     3     8
-6.6864322000e-03     1     3     3     9
 4.2624000000e-06     1     3     4     1
 1.8296000000e-06     1     3     4     2
-6.7054120000e-04     1     3     4     4
 1.0870000000e-07     1     3     4     5
 8.3060000000e-06     1     3     4     6
-1.9291410000e-04     1     3     4     7
 2.2316090000e-04     1     3     4     8
-4.1258000000e-06     1     3     4     9
-1.2057520000e-04     1     3     5     1
-4.8969700000e-05     1     3     5     2
-6.8300000000e-08     1     3     5     4
-6.8123190000e-04     1     3     5     5
-2.3454900000e-04     1     3     5     6
 6.8872768000e-03     1     3     5     7
-2.8742317000e-03     1     3     5     8
 1.5371180000e-04     1     3     5     9
-8.3444700000e-05     1     3     6     1
 3.1276100000e-05     1     3     6     2
-7.2600000000e-08     1     3     6     4
 3.5873000000e-06     1     3     6     5
-6.7910080000e-04     1     3     6     6
 4.2074470000e-03     1     3     6     7
-1.7626218000e-03     1     3     6     8
 3.0916900000e-04     1     3     6     9
-6.0877431000e-02     1     3     7     1
-1.5819397000e-02     1     3     7     2
-1.0048100000e-05     1     3     7     4
 1.0488310000e-04     1     3     7     5
-1.6841658400e-02     1     3     7     6
-7.0775770000e-04     1     3     7     7
 4.1956000000e-06     1     3     7     8
-6.8285964000e-03     1     3     7     9
 2.5461843400e-02     1     3     8     1
 6.6137860000e-03     1     3     8     2
-7.1300000000e-07     1     3     8     4
-4.4718300000e-05     1     3     8     5
 7.0423014000e-03     1     3     8     6
-1.1065300000e-05     1     3     8     7
-7.4784500000e-04     1     3     8     8
 2.8551059000e-03     1     3     8     9
-1.1507024000e-03     1     3     9     1
-2.8014570000e-04     1     3     9     2
 4.8900000000e-08     1     3     9     4
 2.2697000000e-06     1     3     9     5
-1.2741310000e-04     1     3     9     6
-3.8911888000e-03     1     3     9     7
 1.6264719000e-03     1     3     9     8
-7.6411430000e-04     1     3     9     9
 3.9624680000e-04     1     4     2     1
 1.2952287000e-03     1     4     2     2
-1.0730000000e-07     1     4     2     3
 7.3852000000e-06     1     4     2     5
 3.8056660000e-04     1     4     2     6
 1.4216473800e-02     1     4     2     7
 3.3931848500e-02     1     4     2     8
-1.2442081000e-03     1     4     2     9
 4.2624000000e-06     1     4     3     1
 1.7223000000e-06     1     4     3     2
 1.2902321000e-03     1     4     3     3
 1.7700000000e-07     1     4     3     5
 8.3786000000e-06     1     4     3     6
-1.8286600000e-04     1     4     3     7
 2.2387390000e-04     1     4     3     8
-4.1747000000e-06     1     4     3     9
-1.4043722950e-01     1     4     4     1
-8.5497358400e-02     1     4     4     2
 6.7054120000e-04     1     4     4     3
 3.7312928100e-02     1     4     4     5
-1.5786692700e-02     1     4     4     6
-1.6144160000e-04     1     4     4     7
-4.8305730000e-04     1     4     4     8
-6.6830310000e-03     1     4     4     9
 2.3184880000e-04     1     4     5     1
 9.4065500000e-05     1     4     5     2
 6.8300000000e-08     1     4     5     3
 1.3106757000e-03     1     4     5     5
 4.7817990000e-04     1     4     5     6
 2.8868260000e-03     1     4     5     7
 6.8758484000e-03     1     4     5     8
-2.9621020000e-04     1     4     5     9
-3.9842500000e-05     1     4     6     1
-1.1316980000e-04     1     4     6     2
 7.2600000000e-08     1     4     6     3
-6.6391000000e-06     1     4     6     5
 1.2538200000e-03     1     4     6     6
 1.7640735000e-03     1     4     6     7
 4.2098477000e-03     1     4     6     8
-6.2124400000e-04     1     4     6     9
-2.5482926800e-02     1     4     7     1
-6.6184861000e-03     1     4     7     2
 1.0048100000e-05     1     4     7     3
 4.4325300000e-05     1     4     7     5
-7.0485495000e-03     1     4     7     6
 1.4323673000e-03     1     4     7     7
-1.5768800000e-05     1     4     7     8
-2.8579233000e-03     1     4     7     9
-6.0829699000e-02     1     4     8     1
-1.5804500200e-02     1     4     8     2
 7.1300000000e-07     1     4     8     3
 1.0480360000e-04     1     4     8     5
-1.6825016700e-02     1     4     8     6
 1.3833800000e-05     1     4     8     7
 1.4148629000e-03     1     4     8     8
-6.8228762000e-03     1     4     8     9
 2.2226672000e-03     1     4     9     1
 5.4114440000e-04     1     4     9     2
-4.8900000000e-08     1     4     9     3
-4.3416000000e-06     1     4     9     5
 2.3204460000e-04     1     4     9     6
-1.6285168000e-03     1     4     9     7
-3.8863555000e-03     1     4     9     8
 1.4713742000e-03     1     4     9     9
-1.1525027000e-02     1     5     2     1
-3.7282930000e-02     1     5     2     2
 3.8634000000e-06     1     5     2     3
-7.3852000000e-06     1     5     2     4
-1.0117214700e-02     1     5     2     6
-9.9474000000e-05     1     5     2     7
 1.4033611000e-03     1     5     2     8
 3.6497684600e-02     1     5     2     9
-1.2057520000e-04     1     5     3     1
-4.5106300000e-05     1     5     3     2
-3.7312431000e-02     1     5     3     3
-1.7700000000e-07     1     5     3     4
-2.3813630000e-04     1     5     3     6
 6.7823937000e-03     1     5     3     7
-2.8295134000e-03     1     5     3     8
 1.5144210000e-04     1     5     3     9
 2.3184880000e-04     1     5     4     1
 8.6680300000e-05     1     5     4     2
-1.0870000000e-07     1     5     4     3
-3.7312928100e-02     1     5     4     4
 4.8481900000e-04     1     5     4     6
 2.8425007000e-03     1     5     4     7
 6.7710448000e-03     1     5     4     8
-2.9186860000e-04     1     5     4     9
-1.4835646950e-01     1     5     5     1
-8.8505195900e-02     1     5     5     2
 6.8123190000e-04     1     5     5     3
-1.3106757000e-03     1     5     5     4
-2.9523957000e-02     1     5     5     6
-8.8914000000e-06     1     5     5     7
 6.0950920000e-04     1     5     5     8
 2.1311045000e-03     1     5     5     9
 2.4873000000e-05     1     5     6     1
 2.8480200000e-03     1     5     6     2
-3.5873000000e-06     1     5     6     3
 6.6391000000e-06     1     5     6     4
-3.6395684800e-02     1     5     6     6
-1.7054600000e-05     1     5     6     7
 1.4522430000e-04     1     5     6     8
 1.7557073100e-02     1     5     6     9
 2.0143770000e-04     1     5     7     1
 4.8448800000e-05     1     5     7     2
-1.0488310000e-04     1     5     7     3
-4.4325300000e-05     1     5     7     4
 5.1949900000e-05     1     5     7     6
-4.1094154600e-02     1     5     7     7
-1.0027000000e-06     1     5     7     8
-6.1100000000e-07     1     5     7     9
-2.4935484000e-03     1     5     8     1
-6.4474580000e-04     1     5     8     2
 4.4718300000e-05     1     5     8     3
-1.0480360000e-04     1     5     8     4
-7.0016130000e-04     1     5     8     6
 4.1420000000e-07     1     5     8     7
-4.1093733100e-02     1     5     8     8
-2.6730910000e-04     1     5     8     9
-6.5387145800e-02     1     5     9     1
-1.6062316600e-02     1     5     9     2
-2.2697000000e-06     1     5     9     3
 4.3416000000e-06     1     5     9     4
-7.2495532000e-03     1     5     9     6
 2.4402400000e-05     1     5     9     7
-1.3223120000e-04     1     5     9     8
-4.1614428700e-02     1     5     9     9
-8.9803989000e-02     1     6     2     1
-5.6967580400e-02     1     6     2     2
 1.3976190000e-04     1     6     2     3
-3.8056660000e-04     1     6     2     4
 1.0117214700e-02     1     6     2     5
 1.5637000000e-06     1     6     2     7
-1.6938000000e-05     1     6     2     8
 9.0240925000e-03     1     6     2     9
-8.3444700000e-05     1     6     3     1
 1.7103800000e-04     1     6     3     2
 1.5767514300e-02     1     6     3     3
-8.3786000000e-06     1     6     3     4
 2.3813630000e-04     1     6     3     5
 2.1049105400e-02     1     6     3     7
-8.8049232000e-03     1     6     3     8
 4.3658210000e-04     1     6     3     9
-3.9842500000e-05     1     6     4     1
-4.9373640000e-04     1     6     4     2
-8.3060000000e-06     1     6     4     3
 1.5786692700e-02     1     6     4     4
-4.8481900000e-04     1     6     4     5
 8.8126230000e-03     1     6     4     7
 2.1034864400e-02     1     6     4     8
-8.5328860000e-04     1     6     4     9
 2.4873000000e-05     1     6     5     1
 1.2965234700e-02     1     6     5     2
 2.3454900000e-04     1     6     5     3
-4.7817990000e-04     1     6     5     4
 2.9523957000e-02     1     6     5     5
-6.9004500000e-05     1     6     5     7
 8.4538560000e-04     1     6     5     8
 2.4806626300e-02     1     6     5     9
-1.9644165560e-01     1     6     6     1
-9.5685610600e-02     1     6     6     2
 6.7910080000e-04     1     6     6     3
-1.2538200000e-03     1     6     6     4
 3.6395684800e-02     1     6     6     5
 1.2407300000e-05     1     6     6     7
-1.0041700000e-05     1     6     6     8
 1.4156360000e-04     1     6     6     9
 1.3836900000e-05     1     6     7     1
 1.3017900000e-05     1     6     7     2
 1.6841658400e-02     1     6     7     3
 7.0485495000e-03     1     6     7     4
-5.1949900000e-05     1     6     7     5
 8.9824619000e-03     1     6     7     7
-1.6679000000e-06     1     6     7     8
-1.8033000000e-06     1     6     7     9
 1.2013000000e-06     1     6     8     1
-4.0397000000e-06     1     6     8     2
-7.0423014000e-03     1     6     8     3
 1.6825016700e-02     1     6     8     4
 7.0016130000e-04     1     6     8     5
-1.1640000000e-06     1     6     8     7
 8.9810148000e-03     1     6     8     8
-1.2793100000e-05     1     6     8     9
-1.7273832000e-03     1     6     9     1
 3.5340170000e-04     1     6     9     2
 1.2741310000e-04     1     6     9     3
-2.3204460000e-04     1     6     9     4
 7.2495532000e-03     1     6     9     5
 7.3080000000e-07     1     6     9     7
-3.6206000000e-06     1     6     9     8
 1.2341633800e-02     1     6     9     9
 1.2908890000e-04     1     7     2     1
 7.9402500000e-05     1     7     2     2
-3.3953786500e-02     1     7     2     3
-1.4216473800e-02     1     7     2     4
 9.9474000000e-05     1     7     2     5
-1.5637000000e-06     1     7     2     6
-1.8598000000e-06     1     7     2     8
-1.1895900000e-05     1     7     2     9
-6.0877431000e-02     1     7     3     1
-4.9773183500e-02     1     7     3     2
-2.5953870000e-04     1     7     3     3
 1.8286600000e-04     1     7     3     4
-6.7823937000e-03     1     7     3     5
-2.1049105400e-02     1     7     3     6
 1.5260900000e-05     1     7     3     8
-2.9374076000e-03     1     7     3     9
-2.5482926800e-02     1     7     4     1
-2.0834959900e-02     1     7     4     2
 1.9291410000e-04     1     7     4     3
 1.6144160000e-04     1     7     4     4
-2.8425007000e-03     1     7     4     5
-8.8126230000e-03     1     7     4     6
-2.9602600000e-05     1     7     4     8
-1.2294065000e-03     1     7     4     9
 2.0143770000e-04     1     7     5     1
 1.4792280000e-04     1     7     5     2
-6.8872768000e-03     1     7     5     3
-2.8868260000e-03     1     7     5     4
 8.8914000000e-06     1     7     5     5
 6.9004500000e-05     1     7     5     6
-1.4169000000e-06     1     7     5     8
-2.5013400000e-05     1     7     5     9
 1.3836900000e-05     1     7     6     1
 1.1454200000e-05     1     7     6     2
-4.2074470000e-03     1     7     6     3
-1.7640735000e-03     1     7     6     4
 1.7054600000e-05     1     7     6     5
-1.2407300000e-05     1     7     6     6
-5.0390000000e-07     1     7     6     8
-2.5341000000e-06     1     7     6     9
-1.9834205510e-01     1     7     7     1
-9.4526154500e-02     1     7     7     2
 7.0775770000e-04     1     7     7     3
-1.4323673000e-03     1     7     7     4
 4.1094154600e-02     1     7     7     5
-8.9824619000e-03     1     7     7     6
-1.4201300000e-05     1     7     7     8
-1.4980000000e-03     1     7     7     9
 5.2080000000e-07     1     7     8     1
-3.7510000000e-07     1     7     8     2
 1.1065300000e-05     1     7     8     3
-1.3833800000e-05     1     7     8     4
-4.1420000000e-07     1     7     8     5
 1.1640000000e-06     1     7     8     6
-1.5069500000e-05     1     7     8     8
 4.5150000000e-07     1     7     8     9
-2.1118000000e-06     1     7     9     1
-3.3981000000e-06     1     7     9     2
 3.8911888000e-03     1     7     9     3
 1.6285168000e-03     1     7     9     4
-2.4402400000e-05     1     7     9     5
-7.3080000000e-07     1     7     9     6
-2.9910000000e-07     1     7     9     8
-1.9535100000e-05     1     7     9     9
 5.4372000000e-06     1     8     2     1
 3.3963600000e-05     1     8     2     2
 1.4202800300e-02     1     8     2     3
-3.3931848500e-02     1     8     2     4
-1.4033611000e-03     1     8     2     5
 1.6938000000e-05     1     8     2     6
 1.8598000000e-06     1     8     2     7
-1.2964300000e-05     1     8     2     9
 2.5461843400e-02     1     8     3     1
 2.0816586300e-02     1     8     3     2
 1.3550130000e-04     1     8     3     3
-2.2387390000e-04     1     8     3     4
 2.8295134000e-03     1     8     3     5
 8.8049232000e-03     1     8     3     6
-1.5260900000e-05     1     8     3     7
 1.2286340000e-03     1     8     3     9
-6.0829699000e-02     1     8     4     1
-4.9736348700e-02     1     8     4     2
-2.2316090000e-04     1     8     4     3
 4.8305730000e-04     1     8     4     4
-6.7710448000e-03     1     8     4     5
-2.1034864400e-02     1     8     4     6
 2.9602600000e-05     1     8     4     7
-2.9365207000e-03     1     8     4     9
-2.4935484000e-03     1     8     5     1
-2.0481069000e-03     1     8     5     2
 2.8742317000e-03     1     8     5     3
-6.8758484000e-03     1     8     5     4
-6.0950920000e-04     1     8     5     5
-8.4538560000e-04     1     8     5     6
 1.4169000000e-06     1     8     5     7
-1.3507790000e-04     1     8     5     9
 1.2013000000e-06     1     8     6     1
 1.2898300000e-05     1     8     6     2
 1.7626218000e-03     1     8     6     3
-4.2098477000e-03     1     8     6     4
-1.4522430000e-04     1     8     6     5
 1.0041700000e-05     1     8     6     6
 5.0390000000e-07     1     8     6     7
-9.1725000000e-06     1     8     6     9
 5.2080000000e-07     1     8     7     1
 1.4847000000e-06     1     8     7     2
-4.1956000000e-06     1     8     7     3
 1.5768800000e-05     1     8     7     4
 1.0027000000e-06     1     8     7     5
 1.6679000000e-06     1     8     7     6
 1.4201300000e-05     1     8     7     7
 7.5060000000e-07     1     8     7     9
-1.9835044150e-01     1     8     8     1
-9.4531958600e-02     1     8     8     2
 7.4784500000e-04     1     8     8     3
-1.4148629000e-03     1     8     8     4
 4.1093733100e-02     1     8     8     5
-8.9810148000e-03     1     8     8     6
 1.5069500000e-05     1     8     8     7
-1.4960683000e-03     1     8     8     9
 6.6854500000e-05     1     8     9     1
 2.3481500000e-05     1     8     9     2
-1.6264719000e-03     1     8     9     3
 3.8863555000e-03     1     8     9     4
 1.3223120000e-04     1     8     9     5
 3.6206000000e-06     1     8     9     6
 2.9910000000e-07     1     8     9     7
 1.1944200000e-05     1     8     9     9
 1.0624216400e-02     1     9     2     1
-1.2090774700e-02     1     9     2     2
-6.4415010000e-04     1     9     2     3
 1.2442081000e-03     1     9     2     4
-3.6497684600e-02     1     9     2     5
-9.0240925000e-03     1     9     2     6
 1.1895900000e-05     1     9     2     7
 1.2964300000e-05     1     9     2     8
-1.1507024000e-03     1     9     3     1
-9.2429580000e-04     1     9     3     2
 6.6864322000e-03     1     9     3     3
 4.1747000000e-06     1     9     3     4
-1.5144210000e-04     1     9     3     5
-4.3658210000e-04     1     9     3     6
 2.9374076000e-03     1     9     3     7
-1.2286340000e-03     1     9     3     8
 2.2226672000e-03     1     9     4     1
 1.7853525000e-03     1     9     4     2
 4.1258000000e-06     1     9     4     3
 6.6830310000e-03     1     9     4     4
 2.9186860000e-04     1     9     4     5
 8.5328860000e-04     1     9     4     6
 1.2294065000e-03     1     9     4     7
 2.9365207000e-03     1     9     4     8
-6.5387145800e-02     1     9     5     1
-5.2560001200e-02     1     9     5     2
-1.5371180000e-04     1     9     5     3
 2.9621020000e-04     1     9     5     4
-2.1311045000e-03     1     9     5     5
-2.4806626300e-02     1     9     5     6
 2.5013400000e-05     1     9     5     7
 1.3507790000e-04     1     9     5     8
-1.7273832000e-03     1     9     6     1
-8.6706908000e-03     1     9     6     2
-3.0916900000e-04     1     9     6     3
 6.2124400000e-04     1     9     6     4
-1.7557073100e-02     1     9     6     5
-1.4156360000e-04     1     9     6     6
 2.5341000000e-06     1     9     6     7
 9.1725000000e-06     1     9     6     8
-2.1118000000e-06     1     9     7     1
 8.4978000000e-06     1     9     7     2
 6.8285964000e-03     1     9     7     3
 2.8579233000e-03     1     9     7     4
 6.1100000000e-07     1     9     7     5
 1.8033000000e-06     1     9     7     6
 1.4980000000e-03     1     9     7     7
-7.5060000000e-07     1     9     7     8
 6.6854500000e-05     1     9     8     1
 3.6445800000e-05     1     9     8     2
-2.8551059000e-03     1     9     8     3
 6.8228762000e-03     1     9     8     4
 2.6730910000e-04     1     9     8     5
 1.2793100000e-05     1     9     8     6
-4.5150000000e-07     1     9     8     7
 1.4960683000e-03     1     9     8     8
-2.2678422260e-01     1     9     9     1
-1.1281486730e-01     1     9     9     2
 7.6411430000e-04     1     9     9     3
-1.4713742000e-03     1     9     9     4
 4.1614428700e-02     1     9     9     5
-1.2341633800e-02     1     9     9     6
 1.9535100000e-05     1     9     9     7
-1.1944200000e-05     1     9     9     8
-1.1291940590e-01     2     1     1     2
-2.0574500000e-04     2     1     1     3
 3.9624680000e-04     2     1     1     4
-1.1525027000e-02     2     1     1     5
-8.9803989000e-02     2     1     1     6
 1.2908890000e-04     2     1     1     7
 5.4372000000e-06     2     1     1     8
 1.0624216400e-02     2     1     1     9
 6.7300330000e-04     2     1     3     2
 8.5487045500e-02     2     1     3     3
-1.8296000000e-06     2     1     3     4
 4.8969700000e-05     2     1     3     5
-3.1276100000e-05     2     1     3     6
 1.5819397000e-02     2     1     3     7
-6.6137860000e-03     2     1     3     8
 2.8014570000e-04     2     1     3     9
-1.2952287000e-03     2     1     4     2
-1.7223000000e-06     2     1     4     3
 8.5497358400e-02     2     1     4     4
-9.4065500000e-05     2     1     4     5
 1.1316980000e-04     2     1     4     6
 6.6184861000e-03     2     1     4     7
 1.5804500200e-02     2     1     4     8
-5.4114440000e-04     2     1     4     9
 3.7282930000e-02     2     1     5     2
 4.5106300000e-05     2     1     5     3
-8.6680300000e-05     2     1     5     4
 8.8505195900e-02     2     1     5     5
-2.8480200000e-03     2     1     5     6
-4.8448800000e-05     2     1     5     7
 6.4474580000e-04     2     1     5     8
 1.6062316600e-02     2     1     5     9
 5.6967580400e-02     2     1     6     2
-1.7103800000e-04     2     1     6     3
 4.9373640000e-04     2     1     6     4
-1.2965234700e-02     2     1     6     5
 9.5685610600e-02     2     1     6     6
-1.3017900000e-05     2     1     6     7
 4.0397000000e-06     2     1     6     8
-3.5340170000e-04     2     1     6     9
-7.9402500000e-05     2     1     7     2
 4.9773183500e-02     2     1     7     3
 2.0834959900e-02     2     1     7     4
-1.4792280000e-04     2     1     7     5
-1.1454200000e-05     2     1     7     6
 9.4526154500e-02     2     1     7     7
 3.7510000000e-07     2     1     7     8
 3.3981000000e-06     2     1     7     9
-3.3963600000e-05     2     1     8     2
-2.0816586300e-02     2     1     8     3
 4.9736348700e-02     2     1     8     4
 2.0481069000e-03     2     1     8     5
-1.2898300000e-05     2     1     8     6
-1.4847000000e-06     2     1     8     7
 9.4531958600e-02     2     1     8     8
-2.3481500000e-05     2     1     8     9
 1.2090774700e-02     2     1     9     2
 9.2429580000e-04     2     1     9     3
-1.7853525000e-03     2     1     9     4
 5.2560001200e-02     2     1     9     5
 8.6706908000e-03     2     1     9     6
-8.4978000000e-06     2     1     9     7
-3.6445800000e-05     2     1     9     8
 1.1281486730e-01     2     1     9     9
 1.1291940590e-01     2     2     1     1
-6.7300330000e-04     2     2     1     3
 1.2952287000e-03     2     2     1     4
-3.7282930000e-02     2     2     1     5
-5.6967580400e-02     2     2     1     6
 7.9402500000e-05     2     2     1     7
 3.3963600000e-05     2     2     1     8
-1.2090774700e-02     2     2     1     9
-6.7300330000e-04     2     2     3     1
 1.5419943070e-01     2     2     3     3
-5.4747000000e-06     2     2     3     4
 1.5373250000e-04     2     2     3     5
 9.2739200000e-05     2     2     3     6
 7.0133209100e-02     2     2     3     7
-2.9333438700e-02     2     2     3     8
 1.2191769000e-03     2     2     3     9
 1.2952287000e-03     2     2     4     1
-5.4747000000e-06     2     2     4     3
 1.5422896280e-01     2     2     4     4
-2.9560380000e-04     2     2     4     5
 5.3229000000e-05     2     2     4     6
 2.9356084700e-02     2     2     4     7
 7.0073274100e-02     2     2     4     8
-2.3555093000e-03     2     2     4     9
-3.7282930000e-02     2     2     5     1
 1.5373250000e-04     2     2     5     3
-2.9560380000e-04     2     2     5     4
 1.6416170190e-01     2     2     5     5
-2.5516540000e-04     2     2     5     6
-2.3109160000e-04     2     2     5     7
 2.8583701000e-03     2     2     5     8
 6.9190643600e-02     2     2     5     9
-5.6967580400e-02     2     2     6     1
 9.2739200000e-05     2     2     6     3
 5.3229000000e-05     2     2     6     4
-2.5516540000e-04     2     2     6     5
 1.2057791680e-01     2     2     6     6
 2.7994800000e-05     2     2     6     7
 4.1063000000e-06     2     2     6     8
-2.0025150000e-03     2     2     6     9
 7.9402500000e-05     2     2     7     1
 7.0133209100e-02     2     2     7     3
 2.9356084700e-02     2     2     7     4
-2.3109160000e-04     2     2     7     5
 2.7994800000e-05     2     2     7     6
 1.5025048650e-01     2     2     7     7
-1.5731000000e-06     2     2     7     8
 6.5636000000e-06     2     2     7     9
 3.3963600000e-05     2     2     8     1
-2.9333438700e-02     2     2     8     3
 7.0073274100e-02     2     2     8     4
 2.8583701000e-03     2     2     8     5
 4.1063000000e-06     2     2     8     6
-1.5731000000e-06     2     2     8     7
 1.5025502210e-01     2     2     8     8
-5.6191100000e-05     2     2     8     9
-1.2090774700e-02     2     2     9     1
 1.2191769000e-03     2     2     9     3
-2.3555093000e-03     2     2     9     4
 6.9190643600e-02     2     2     9     5
-2.0025150000e-03     2     2     9     6
 6.5636000000e-06     2     2     9     7
-5.6191100000e-05     2     2     9     8
 1.7480609460e-01     2     2     9     9
 2.0574500000e-04     2     3     1     1
 6.7300330000e-04     2     3     1     2
-1.0730000000e-07     2     3     1     4
 3.8634000000e-06     2     3     1     5
 1.3976190000e-04     2     3     1     6
-3.3953786500e-02     2     3     1     7
 1.4202800300e-02     2     3     1     8
-6.4415010000e-04     2     3     1     9