&FCI NORB=  9,NELEC=  2,MS2=0,
 ORBSYM=1,1,1,1,1,1,1,1,1
 ISYM=1,
&END
 3.8386275700e-02     1     1     2     2
 1.1299330000e-04     1     1     2     3
-4.1370000000e-07     1     1     2     4
 4.3872000000e-06     1     1     2     5
 6.4766510600e-02     1     1     2     6
-2.8377100000e-05     1     1     2     7
-7.3111530000e-04     1     1     2     8
 2.7644024800e-02     1     1     2     9
 1.1299330000e-04     1     1     3     2
 1.0016511770e-01     1     1     3     3
-8.0422000000e-06     1     1     3     4
 5.2996000000e-06     1     1     3     5
 5.0478196000e-03     1     1     3     6
-6.2635370000e-04     1     1     3     7
 1.4218293000e-03     1     1     3     8
-6.1419329700e-02     1     1     3     9
-4.1370000000e-07     1     1     4     2
-8.0422000000e-06     1     1     4     3
 1.0299904420e-01     1     1     4     4
 6.8900000000e-08     1     1     4     5
 4.2716700000e-05     1     1     4     6
 5.6997880000e-02     1     1     4     7
-2.1767393400e-02     1     1     4     8
-1.1031639000e-03     1     1     4     9
 4.3872000000e-06     1     1     5     2
 5.2996000000e-06     1     1     5     3
 6.8900000000e-08     1     1     5     4
 1.0300209890e-01     1     1     5     5
-3.5439400000e-05     1     1     5     6
-2.1782489700e-02     1     1     5     7
-5.6996321400e-02     1     1     5     8
-1.1701196000e-03     1     1     5     9
 6.4766510600e-02     1     1     6     2
 5.0478196000e-03     1     1     6     3
 4.2716700000e-05     1     1     6     4
-3.5439400000e-05     1     1     6     5
 1.3283859390e-01     1     1     6     6
 1.1613600000e-05     1     1     6     7
 1.7024130000e-04     1     1     6     8
-6.5006049000e-03     1     1     6     9
-2.8377100000e-05     1     1     7     2
-6.2635370000e-04     1     1     7     3
 5.6997880000e-02     1     1     7     4
-2.1782489700e-02     1     1     7     5
 1.1613600000e-05     1     1     7     6
 1.2810756010e-01     1     1     7     7
-1.7244000000e-06     1     1     7     8
 2.4782300000e-05     1     1     7     9
-7.3111530000e-04     1     1     8     2
 1.4218293000e-03     1     1     8     3
-2.1767393400e-02     1     1     8     4
-5.6996321400e-02     1     1     8     5
 1.7024130000e-04     1     1     8     6
-1.7244000000e-06     1     1     8     7
 1.2813166820e-01     1     1     8     8
-1.4679200000e-05     1     1     8     9
 2.7644024800e-02     1     1     9     2
-6.1419329700e-02     1     1     9     3
-1.1031639000e-03     1     1     9     4
-1.1701196000e-03     1     1     9     5
-6.5006049000e-03     1     1     9     6
 2.4782300000e-05     1     1     9     7
-1.4679200000e-05     1     1     9     8
 1.3475580740e-01     1     1     9     9
-3.8386275700e-02     1     2     2     1
-3.2542785900e-02     1     2     2     3
-3.1366340000e-04     1     2     2     4
 2.0226130000e-04     1     2     2     5
-4.7459092300e-02     1     2     2     6
 8.3660000000e-06     1     2     2     7
 1.1592320000e-04     1     2     2     8
-4.2125790000e-03     1     2     2     9
-1.1299330000e-04     1     2     3     1
-7.9040350600e-02     1     2     3     3
-2.7944700000e-05     1     2     3     4
 1.8854900000e-05     1     2     3     5
 6.3680703000e-03     1     2     3     6
 5.3339900000e-04     1     2     3     7
-1.2203258000e-03     1     2     3     8
 5.2004785800e-02     1     2     3     9
 4.1370000000e-07     1     2     4     1
-2.8313500000e-05     1     2     4     3
-7.7672591600e-02     1     2     4     4
-3.8000000000e-08     1     2     4     5
 6.6241800000e-05     1     2     4     6
-4.9089594400e-02     1     2     4     7
 1.8745264500e-02     1     2     4     8
 9.4062850000e-04     1     2     4     9
-4.3872000000e-06     1     2     5     1
 1.8662800000e-05     1     2     5     3
 3.6630000000e-07     1     2     5     4
-7.7674041200e-02     1     2     5     5
-3.6687800000e-05     1     2     5     6
 1.8759712200e-02     1     2     5     7
 4.9085044100e-02     1     2     5     8
 9.9771560000e-04     1     2     5     9
-6.4766510600e-02     1     2     6     1
 1.3328472000e-03     1     2     6     3
 1.5060200000e-05     1     2     6     4
-5.5370000000e-06     1     2     6     5
-7.7095443600e-02     1     2     6     6
-1.5729100000e-05     1     2     6     7
-3.1135650000e-04     1     2     6     8
 1.2516163700e-02     1     2     6     9
 2.8377100000e-05     1     2     7     1
 2.8355990000e-04     1     2     7     3
-2.5939508900e-02     1     2     7     4
 9.9113282000e-03     1     2     7     5
-6.9156000000e-06     1     2     7     6
-7.6017951100e-02     1     2     7     7
 1.8704000000e-06     1     2     7     8
-2.5760900000e-05     1     2     7     9
 7.3111530000e-04     1     2     8     1
-6.1262950000e-04     1     2     8     3
 9.9041057000e-03     1     2     8     4
 2.5936721300e-02     1     2     8     5
-7.5975200000e-05     1     2     8     6
 1.1484000000e-06     1     2     8     7
-7.6035113300e-02     1     2     8     8
-7.5248000000e-06     1     2     8     9
-2.7644024800e-02     1     2     9     1
 2.6277159300e-02     1     2     9     3
 4.8589740000e-04     1     2     9     4
 5.3482820000e-04     1     2     9     5
 3.4252612000e-03     1     2     9     6
-2.5092500000e-05     1     2     9     7
-4.9483000000e-06     1     2     9     8
-8.0327594300e-02     1     2     9     9
-1.1299330000e-04     1     3     2     1
 3.2542785900e-02     1     3     2     2
 3.6880000000e-07     1     3     2     4
 1.9210000000e-07     1     3     2     5
 5.0352231000e-03     1     3     2     6
 2.4983910000e-04     1     3     2     7
-6.0769630000e-04     1     3     2     8
 2.5727626500e-02     1     3     2     9
-1.0016511770e-01     1     3     3     1
 7.9040350600e-02     1     3     3     2
-3.8628170000e-04     1     3     3     4
 2.5369380000e-04     1     3     3     5
 2.6648202100e-02     1     3     3     6
 1.6060000000e-05     1     3     3     7
 1.2465460000e-04     1     3     3     8
-6.0424979000e-03     1     3     3     9
 8.0422000000e-06     1     3     4     1
 2.8313500000e-05     1     3     4     2
 4.0614824800e-02     1     3     4     4
 1.1960000000e-07     1     3     4     5
 1.4755000000e-05     1     3     4     6
 5.6775830000e-04     1     3     4     7
-2.2019900000e-04     1     3     4     8
-1.5614000000e-06     1     3     4     9
-5.2996000000e-06     1     3     5     1
-1.8662800000e-05     1     3     5     2
-1.1810000000e-07     1     3     5     4
 4.0615103100e-02     1     3     5     5
-1.0334400000e-05     1     3     5     6
-2.1716100000e-04     1     3     5     7
-5.7220930000e-04     1     3     5     8
-4.9193700000e-05     1     3     5     9
-5.0478196000e-03     1     3     6     1
-1.3328472000e-03     1     3     6     2
-7.8070000000e-07     1     3     6     4
-1.1760000000e-07     1     3     6     5
 4.1327918600e-02     1     3     6     6
 1.2304410000e-04     1     3     6     7
-2.9879750000e-04     1     3     6     8
 1.3530113900e-02     1     3     6     9
 6.2635370000e-04     1     3     7     1
-2.8355990000e-04     1     3     7     2
 2.1429975000e-03     1     3     7     4
-8.1948000000e-04     1     3     7     5
-1.2717960000e-04     1     3     7     6
 4.3103996900e-02     1     3     7     7
 8.4840000000e-07     1     3     7     8
-2.9615000000e-05     1     3     7     9
-1.4218293000e-03     1     3     8     1
 6.1262950000e-04     1     3     8     2
-8.1929170000e-04     1     3     8     4
-2.1422144000e-03     1     3     8     5
 2.3555420000e-04     1     3     8     6
 3.8100000000e-08     1     3     8     7
 4.3104677400e-02     1     3     8     8
 5.4684200000e-05     1     3     8     9
 6.1419329700e-02     1     3     9     1
-2.6277159300e-02     1     3     9     2
-1.8859200000e-05     1     3     9     4
-5.8446200000e-05     1     3     9     5
-9.6930862000e-03     1     3     9     6
 2.0265000000e-06     1     3     9     7
 6.7162400000e-05     1     3     9     8
 4.1341285500e-02     1     3     9     9
 4.1370000000e-07     1     4     2     1
 3.1366340000e-04     1     4     2     2
-3.6880000000e-07     1     4     2     3
-4.0430000000e-07     1     4     2     5
 5.1181600000e-05     1     4     2     6
-2.3150085500e-02     1     4     2     7
 8.8411588000e-03     1     4     2     8
 4.5473110000e-04     1     4     2     9
 8.0422000000e-06     1     4     3     1
 2.7944700000e-05     1     4     3     2
 3.8628170000e-04     1     4     3     3
 2.3770000000e-07     1     4     3     5
 1.5535700000e-05     1     4     3     6
-1.5752392000e-03     1     4     3     7
 5.9909270000e-04     1     4     3     8
 1.7297800000e-05     1     4     3     9
-1.0299904420e-01     1     4     4     1
 7.7672591600e-02     1     4     4     2
-4.0614824800e-02     1     4     4     3
 2.5544840000e-04     1     4     4     5
 2.5447953500e-02     1     4     4     6
 1.1956500000e-05     1     4     4     7
 1.9160160000e-04     1     4     4     8
-6.7579271000e-03     1     4     4     9
-6.8900000000e-08     1     4     5     1
-3.6630000000e-07     1     4     5     2
 1.1810000000e-07     1     4     5     3
 3.8900950000e-04     1     4     5     5
-7.1900000000e-08     1     4     5     6
 7.0505000000e-06     1     4     5     7
-5.5672000000e-06     1     4     5     8
-5.6880000000e-07     1     4     5     9
-4.2716700000e-05     1     4     6     1
-1.5060200000e-05     1     4     6     2
 7.8070000000e-07     1     4     6     3
 1.4800000000e-08     1     4     6     5
 3.9445660000e-04     1     4     6     6
-1.1219444800e-02     1     4     6     7
 4.2870390000e-03     1     4     6     8
 2.3815060000e-04     1     4     6     9
-5.6997880000e-02     1     4     7     1
 2.5939508900e-02     1     4     7     2
-2.1429975000e-03     1     4     7     3
 5.9387000000e-06     1     4     7     5
 1.1431285800e-02     1     4     7     6
 4.0857610000e-04     1     4     7     7
-6.0930800000e-05     1     4     7     8
 2.2617691000e-03     1     4     7     9
 2.1767393400e-02     1     4     8     1
-9.9041057000e-03     1     4     8     2
 8.1929170000e-04     1     4     8     3
-2.6363700000e-05     1     4     8     5
-4.3639305000e-03     1     4     8     6
 1.2036800000e-05     1     4     8     7
 4.3366130000e-04     1     4     8     8
-8.6447520000e-04     1     4     8     9
 1.1031639000e-03     1     4     9     1
-4.8589740000e-04     1     4     9     2
 1.8859200000e-05     1     4     9     3
-4.3830000000e-07     1     4     9     5
-1.8907780000e-04     1     4     9     6
-4.2898000000e-04     1     4     9     7
 1.6481850000e-04     1     4     9     8
 3.8455780000e-04     1     4     9     9
-4.3872000000e-06     1     5     2     1
-2.0226130000e-04     1     5     2     2
-1.9210000000e-07     1     5     2     3
 4.0430000000e-07     1     5     2     4
-3.1150800000e-05     1     5     2     6
 8.8483840000e-03     1     5     2     7
 2.3148322800e-02     1     5     2     8
 4.6288740000e-04     1     5     2     9
-5.2996000000e-06     1     5     3     1
-1.8854900000e-05     1     5     3     2
-2.5369380000e-04     1     5     3     3
-2.3770000000e-07     1     5     3     4
-1.0216800000e-05     1     5     3     6
 6.0231900000e-04     1     5     3     7
 1.5700051000e-03     1     5     3     8
 9.2525000000e-06     1     5     3     9
-6.8900000000e-08     1     5     4     1
 3.8000000000e-08     1     5     4     2
-1.1960000000e-07     1     5     4     3
-2.5544840000e-04     1     5     4     4
-8.6700000000e-08     1     5     4     6
 1.1118000000e-06     1     5     4     7
 2.0796500000e-05     1     5     4     8
-1.3050000000e-07     1     5     4     9
-1.0300209890e-01     1     5     5     1
 7.7674041200e-02     1     5     5     2
-4.0615103100e-02     1     5     5     3
-3.8900950000e-04     1     5     5     4
 2.5448713800e-02     1     5     5     6
 2.0988400000e-05     1     5     5     7
 1.8830370000e-04     1     5     5     8
-6.7577555000e-03     1     5     5     9
 3.5439400000e-05     1     5     6     1
 5.5370000000e-06     1     5     6     2
 1.1760000000e-07     1     5     6     3
-1.4800000000e-08     1     5     6     4
-2.6051390000e-04     1     5     6     6
 4.2889516000e-03     1     5     6     7
 1.1222494300e-02     1     5     6     8
 2.4655260000e-04     1     5     6     9
 2.1782489700e-02     1     5     7     1
-9.9113282000e-03     1     5     7     2
 8.1948000000e-04     1     5     7     3
-5.9387000000e-06     1     5     7     4
-4.3677356000e-03     1     5     7     6
-2.6982750000e-04     1     5     7     7
 2.4790700000e-05     1     5     7     8
-8.6439290000e-04     1     5     7     9
 5.6996321400e-02     1     5     8     1
-2.5936721300e-02     1     5     8     2
 2.1422144000e-03     1     5     8     3
 2.6363700000e-05     1     5     8     4
-1.1427110400e-02     1     5     8     6
-2.8091000000e-06     1     5     8     7
-2.1290320000e-04     1     5     8     8
-2.2625042000e-03     1     5     8     9
 1.1701196000e-03     1     5     9     1
-5.3482820000e-04     1     5     9     2
 5.8446200000e-05     1     5     9     3
 4.3830000000e-07     1     5     9     4
-2.3006030000e-04     1     5     9     6
 1.6390840000e-04     1     5     9     7
 4.3049540000e-04     1     5     9     8
-3.1129980000e-04     1     5     9     9
-6.4766510600e-02     1     6     2     1
 4.7459092300e-02     1     6     2     2
-5.0352231000e-03     1     6     2     3
-5.1181600000e-05     1     6     2     4
 3.1150800000e-05     1     6     2     5
-8.8135000000e-06     1     6     2     7
-2.3538130000e-04     1     6     2     8
 9.0909025000e-03     1     6     2     9
-5.0478196000e-03     1     6     3     1
-6.3680703000e-03     1     6     3     2
-2.6648202100e-02     1     6     3     3
-1.5535700000e-05     1     6     3     4
 1.0216800000e-05     1     6     3     5
 2.5022370000e-04     1     6     3     7
-5.3435170000e-04     1     6     3     8
 2.3223200100e-02     1     6     3     9
-4.2716700000e-05     1     6     4     1
-6.6241800000e-05     1     6     4     2
-1.4755000000e-05     1     6     4     3
-2.5447953500e-02     1     6     4     4
 8.6700000000e-08     1     6     4     5
-2.2650730600e-02     1     6     4     7
 8.6509695000e-03     1     6     4     8
 4.2722840000e-04     1     6     4     9
 3.5439400000e-05     1     6     5     1
 3.6687800000e-05     1     6     5     2
 1.0334400000e-05     1     6     5     3
 7.1900000000e-08     1     6     5     4
-2.5448713800e-02     1     6     5     5
 8.6566872000e-03     1     6     5     7
 2.2649604700e-02     1     6     5     8
 4.7661290000e-04     1     6     5     9
-1.3283859390e-01     1     6     6     1
 7.7095443600e-02     1     6     6     2
-4.1327918600e-02     1     6     6     3
-3.9445660000e-04     1     6     6     4
 2.6051390000e-04     1     6     6     5
 1.0305400000e-05     1     6     6     7
 2.2636200000e-05     1     6     6     8
-4.0415280000e-04     1     6     6     9
-1.1613600000e-05     1     6     7     1
 6.9156000000e-06     1     6     7     2
 1.2717960000e-04     1     6     7     3
-1.1431285800e-02     1     6     7     4
 4.3677356000e-03     1     6     7     5
-1.2585653700e-02     1     6     7     7
 8.1660000000e-07     1     6     7     8
-7.8745000000e-06     1     6     7     9
-1.7024130000e-04     1     6     8     1
 7.5975200000e-05     1     6     8     2
-2.3555420000e-04     1     6     8     3
 4.3639305000e-03     1     6     8     4
 1.1427110400e-02     1     6     8     5
 1.9200000000e-07     1     6     8     7
-1.2591271900e-02     1     6     8     8
 3.5350300000e-05     1     6     8     9
 6.5006049000e-03     1     6     9     1
-3.4252612000e-03     1     6     9     2
 9.6930862000e-03     1     6     9     3
 1.8907780000e-04     1     6     9     4
 2.3006030000e-04     1     6     9     5
-7.6923000000e-06     1     6     9     7
 3.9118800000e-05     1     6     9     8
-1.5526623000e-02     1     6     9     9
 2.8377100000e-05     1     7     2     1
-8.3660000000e-06     1     7     2     2
-2.4983910000e-04     1     7     2     3
 2.3150085500e-02     1     7     2     4
-8.8483840000e-03     1     7     2     5
 8.8135000000e-06     1     7     2     6
 7.2200000000e-07     1     7     2     8
-6.6840000000e-07     1     7     2     9
 6.2635370000e-04     1     7     3     1
-5.3339900000e-04     1     7     3     2
-1.6060000000e-05     1     7     3     3
 1.5752392000e-03     1     7     3     4
-6.0231900000e-04     1     7     3     5
-2.5022370000e-04     1     7     3     6
 8.1030000000e-07     1     7     3     8
-3.1641500000e-05     1     7     3     9
-5.6997880000e-02     1     7     4     1
 4.9089594400e-02     1     7     4     2
-5.6775830000e-04     1     7     4     3
-1.1956500000e-05     1     7     4     4
-1.1118000000e-06     1     7     4     5
 2.2650730600e-02     1     7     4     6
-7.2967600000e-05     1     7     4     8
 2.6907491000e-03     1     7     4     9
 2.1782489700e-02     1     7     5     1
-1.8759712200e-02     1     7     5     2
 2.1716100000e-04     1     7     5     3
-7.0505000000e-06     1     7     5     4
-2.0988400000e-05     1     7     5     5
-8.6566872000e-03     1     7     5     6
 2.7599800000e-05     1     7     5     8
-1.0283013000e-03     1     7     5     9
-1.1613600000e-05     1     7     6     1
 1.5729100000e-05     1     7     6     2
-1.2304410000e-04     1     7     6     3
 1.1219444800e-02     1     7     6     4
-4.2889516000e-03     1     7     6     5
-1.0305400000e-05     1     7     6     6
 6.2460000000e-07     1     7     6     8
-1.8220000000e-07     1     7     6     9
-1.2810756010e-01     1     7     7     1
 7.6017951100e-02     1     7     7     2
-4.3103996900e-02     1     7     7     3
-4.0857610000e-04     1     7     7     4
 2.6982750000e-04     1     7     7     5
 1.2585653700e-02     1     7     7     6
 1.2199070000e-04     1     7     7     8
-4.5900578000e-03     1     7     7     9
 1.7244000000e-06     1     7     8     1
-1.1484000000e-06     1     7     8     2
-3.8100000000e-08     1     7     8     3
-1.2036800000e-05     1     7     8     4
 2.8091000000e-06     1     7     8     5
-1.9200000000e-07     1     7     8     6
-1.5334400000e-05     1     7     8     8
-2.9630000000e-07     1     7     8     9
-2.4782300000e-05     1     7     9     1
 2.5092500000e-05     1     7     9     2
-2.0265000000e-06     1     7     9     3
 4.2898000000e-04     1     7     9     4
-1.6390840000e-04     1     7     9     5
 7.6923000000e-06     1     7     9     6
-3.4070000000e-07     1     7     9     8
-1.1698900000e-05     1     7     9     9
 7.3111530000e-04     1     8     2     1
-1.1592320000e-04     1     8     2     2
 6.0769630000e-04     1     8     2     3
-8.8411588000e-03     1     8     2     4
-2.3148322800e-02     1     8     2     5
 2.3538130000e-04     1     8     2     6
-7.2200000000e-07     1     8     2     7
-2.5765000000e-06     1     8     2     9
-1.4218293000e-03     1     8     3     1
 1.2203258000e-03     1     8     3     2
-1.2465460000e-04     1     8     3     3
-5.9909270000e-04     1     8     3     4
-1.5700051000e-03     1     8     3     5
 5.3435170000e-04     1     8     3     6
-8.1030000000e-07     1     8     3     7
-1.2478200000e-05     1     8     3     9
 2.1767393400e-02     1     8     4     1
-1.8745264500e-02     1     8     4     2
 2.2019900000e-04     1     8     4     3
-1.9160160000e-04     1     8     4     4
-2.0796500000e-05     1     8     4     5
-8.6509695000e-03     1     8     4     6
 7.2967600000e-05     1     8     4     7
-1.0292937000e-03     1     8     4     9
 5.6996321400e-02     1     8     5     1
-4.9085044100e-02     1     8     5     2
 5.7220930000e-04     1     8     5     3
 5.5672000000e-06     1     8     5     4
-1.8830370000e-04     1     8     5     5
-2.2649604700e-02     1     8     5     6
-2.7599800000e-05     1     8     5     7
-2.6929996000e-03     1     8     5     9
-1.7024130000e-04     1     8     6     1
 3.1135650000e-04     1     8     6     2
 2.9879750000e-04     1     8     6     3
-4.2870390000e-03     1     8     6     4
-1.1222494300e-02     1     8     6     5
-2.2636200000e-05     1     8     6     6
-6.2460000000e-07     1     8     6     7
-3.7685000000e-06     1     8     6     9
 1.7244000000e-06     1     8     7     1
-1.8704000000e-06     1     8     7     2
-8.4840000000e-07     1     8     7     3
 6.0930800000e-05     1     8     7     4
-2.4790700000e-05     1     8     7     5
-8.1660000000e-07     1     8     7     6
-1.2199070000e-04     1     8     7     7
 4.4400000000e-08     1     8     7     9
-1.2813166820e-01     1     8     8     1
 7.6035113300e-02     1     8     8     2
-4.3104677400e-02     1     8     8     3
-4.3366130000e-04     1     8     8     4
 2.1290320000e-04     1     8     8     5
 1.2591271900e-02     1     8     8     6
 1.5334400000e-05     1     8     8     7
-4.5875519000e-03     1     8     8     9
 1.4679200000e-05     1     8     9     1
 4.9483000000e-06     1     8     9     2
-6.7162400000e-05     1     8     9     3
-1.6481850000e-04     1     8     9     4
-4.3049540000e-04     1     8     9     5
-3.9118800000e-05     1     8     9     6
 3.4070000000e-07     1     8     9     7
-1.0434640000e-04     1     8     9     9
-2.7644024800e-02     1     9     2     1
 4.2125790000e-03     1     9     2     2
-2.5727626500e-02     1     9     2     3
-4.5473110000e-04     1     9     2     4
-4.6288740000e-04     1     9     2     5
-9.0909025000e-03     1     9     2     6
 6.6840000000e-07     1     9     2     7
 2.5765000000e-06     1     9     2     8
 6.1419329700e-02     1     9     3     1
-5.2004785800e-02     1     9     3     2
 6.0424979000e-03     1     9     3     3
-1.7297800000e-05     1     9     3     4
-9.2525000000e-06     1     9     3     5
-2.3223200100e-02     1     9     3     6
 3.1641500000e-05     1     9     3     7
 1.2478200000e-05     1     9     3     8
 1.1031639000e-03     1     9     4     1
-9.4062850000e-04     1     9     4     2
 1.5614000000e-06     1     9     4     3
 6.7579271000e-03     1     9     4     4
 1.3050000000e-07     1     9     4     5
-4.2722840000e-04     1     9     4     6
-2.6907491000e-03     1     9     4     7
 1.0292937000e-03     1     9     4     8
 1.1701196000e-03     1     9     5     1
-9.9771560000e-04     1     9     5     2
 4.9193700000e-05     1     9     5     3
 5.6880000000e-07     1     9     5     4
 6.7577555000e-03     1     9     5     5
-4.7661290000e-04     1     9     5     6
 1.0283013000e-03     1     9     5     7
 2.6929996000e-03     1     9     5     8
 6.5006049000e-03     1     9     6     1
-1.2516163700e-02     1     9     6     2
-1.3530113900e-02     1     9     6     3
-2.3815060000e-04     1     9     6     4
-2.4655260000e-04     1     9     6     5
 4.0415280000e-04     1     9     6     6
 1.8220000000e-07     1     9     6     7
 3.7685000000e-06     1     9     6     8
-2.4782300000e-05     1     9     7     1
 2.5760900000e-05     1     9     7     2
 2.9615000000e-05     1     9     7     3
-2.2617691000e-03     1     9     7     4
 8.6439290000e-04     1     9     7     5
 7.8745000000e-06     1     9     7     6
 4.5900578000e-03     1     9     7     7
-4.4400000000e-08     1     9     7     8
 1.4679200000e-05     1     9     8     1
 7.5248000000e-06     1     9     8     2
-5.4684200000e-05     1     9     8     3
 8.6447520000e-04     1     9     8     4
 2.2625042000e-03     1     9     8     5
-3.5350300000e-05     1     9     8     6
 2.9630000000e-07     1     9     8     7
 4.5875519000e-03     1     9     8     8
-1.3475580740e-01     1     9     9     1
 8.0327594300e-02     1     9     9     2
-4.1341285500e-02     1     9     9     3
-3.8455780000e-04     1     9     9     4
 3.1129980000e-04     1     9     9     5
 1.5526623000e-02     1     9     9     6
 1.1698900000e-05     1     9     9     7
 1.0434640000e-04     1     9     9     8
-3.8386275700e-02     2     1     1     2
-1.1299330000e-04     2     1     1     3
 4.1370000000e-07     2     1     1     4
-4.3872000000e-06     2     1     1     5
-6.4766510600e-02     2     1     1     6
 2.8377100000e-05     2     1     1     7
 7.3111530000e-04     2     1     1     8
-2.7644024800e-02     2     1     1     9
-3.2542785900e-02     2     1     3     2
-7.9040350600e-02     2     1     3     3
-2.8313500000e-05     2     1     3     4
 1.8662800000e-05     2     1     3     5
 1.3328472000e-03     2     1     3     6
 2.8355990000e-04     2     1     3     7
-6.1262950000e-04     2     1     3     8
 2.6277159300e-02     2     1     3     9
-3.1366340000e-04     2     1     4     2
-2.7944700000e-05     2     1     4     3
-7.7672591600e-02     2     1     4     4
 3.6630000000e-07     2     1     4     5
 1.5060200000e-05     2     1     4     6
-2.5939508900e-02     2     1     4     7
 9.9041057000e-03     2     1     4     8
 4.8589740000e-04     2     1     4     9
 2.0226130000e-04     2     1     5     2
 1.8854900000e-05     2     1     5     3
-3.8000000000e-08     2     1     5     4
-7.7674041200e-02     2     1     5     5
-5.5370000000e-06     2     1     5     6
 9.9113282000e-03     2     1     5     7
 2.5936721300e-02     2     1     5     8
 5.3482820000e-04     2     1     5     9
-4.7459092300e-02     2     1     6     2
 6.3680703000e-03     2     1     6     3
 6.6241800000e-05     2     1     6     4
-3.6687800000e-05     2     1     6     5
-7.7095443600e-02     2     1     6     6
-6.9156000000e-06     2     1     6     7
-7.5975200000e-05     2     1     6     8
 3.4252612000e-03     2     1     6     9
 8.3660000000e-06     2     1     7     2
 5.3339900000e-04     2     1     7     3
-4.9089594400e-02     2     1     7     4
 1.8759712200e-02     2     1     7     5
-1.5729100000e-05     2     1     7     6
-7.6017951100e-02     2     1     7     7
 1.1484000000e-06     2     1     7     8
-2.5092500000e-05     2     1     7     9
 1.1592320000e-04     2     1     8     2
-1.2203258000e-03     2     1     8     3
 1.8745264500e-02     2     1     8     4
 4.9085044100e-02     2     1     8     5
-3.1135650000e-04     2     1     8     6
 1.8704000000e-06     2     1     8     7
-7.6035113300e-02     2     1     8     8
-4.9483000000e-06     2     1     8     9
-4.2125790000e-03     2     1     9     2
 5.2004785800e-02     2     1     9     3
 9.4062850000e-04     2     1     9     4
 9.9771560000e-04     2     1     9     5
 1.2516163700e-02     2     1     9     6
-2.5760900000e-05     2     1     9     7
-7.5248000000e-06     2     1     9     8
-8.0327594300e-02     2     1     9     9
 3.8386275700e-02     2     2     1     1
 3.2542785900e-02     2     2     1     3
 3.1366340000e-04     2     2     1     4
-2.0226130000e-04     2     2     1     5
 4.7459092300e-02     2     2     1     6
-8.3660000000e-06     2     2     1     7
-1.1592320000e-04     2     2     1     8
 4.2125790000e-03     2     2     1     9
 3.2542785900e-02     2     2     3     1
 9.2715152200e-02     2     2     3     3
-9.4790000000e-07     2     2     3     4
 1.4255000000e-06     2     2     3     5
 1.6753776700e-02     2     2     3     6
-4.9189040000e-04     2     2     3     7
 1.0455695000e-03     2     2     3     8
-4.5818173900e-02     2     2     3     9
 3.1366340000e-04     2     2     4     1
-9.4790000000e-07     2     2     4     3
 9.4468295400e-02     2     2     4     4
 2.4700000000e-08     2     2     4     5
 1.5407240000e-04     2     2     4     6
 4.3683148500e-02     2     2     4     7
-1.6684228100e-02     2     2     4     8
-8.2844010000e-04     2     2     4     9
-2.0226130000e-04     2     2     5     1
 1.4255000000e-06     2     2     5     3
 2.4700000000e-08     2     2     5     4
 9.4470734600e-02     2     2     5     5
-1.0979630000e-04     2     2     5     6
-1.6694271900e-02     2     2     5     7
-4.3682324600e-02     2     2     5     8
-9.1722640000e-04     2     2     5     9
 4.7459092300e-02     2     2     6     1
 1.6753776700e-02     2     2     6     3
 1.5407240000e-04     2     2     6     4
-1.0979630000e-04     2     2     6     5
 5.9503871100e-02     2     2     6     6
 4.8488000000e-06     2     2     6     7
 1.2945040000e-04     2     2     6     8
-4.8014879000e-03     2     2     6     9
-8.3660000000e-06     2     2     7     1
-4.9189040000e-04     2     2     7     3
 4.3683148500e-02     2     2     7     4
-1.6694271900e-02     2     2     7     5
 4.8488000000e-06     2     2     7     6
 7.9942439200e-02     2     2     7     7
-1.0344000000e-06     2     2     7     8
 1.3020800000e-05     2     2     7     9
-1.1592320000e-04     2     2     8     1
 1.0455695000e-03     2     2     8     3
-1.6684228100e-02     2     2     8     4
-4.3682324600e-02     2     2     8     5
 1.2945040000e-04     2     2     8     6
-1.0344000000e-06     2     2     8     7
 7.9958690700e-02     2     2     8     8
-3.8445700000e-05     2     2     8     9
 4.2125790000e-03     2     2     9     1
-4.5818173900e-02     2     2     9     3
-8.2844010000e-04     2     2     9     4
-9.1722640000e-04     2     2     9     5
-4.8014879000e-03     2     2     9     6
 1.3020800000e-05     2     2     9     7
-3.8445700000e-05     2     2     9     8
 8.5442794200e-02     2     2     9     9
 1.1299330000e-04     2     3     1     1
-3.2542785900e-02     2     3     1     2
-3.6880000000e-07     2     3     1     4
-1.9210000000e-07     2     3     1     5
-5.0352231000e-03     2     3     1     6
-2.4983910000e-04     2     3     1     7
 6.0769630000e-04     2     3     1     8
-2.5727626500e-02     2     3     1     9