&FCI NORB=  9,NELEC=  2,MS2=0,
 ORBSYM=1,1,1,1,1,1,1,1,1
 ISYM=1,
&END
-9.6674379000e-03     1     1     2     2
-9.8017049000e-03     1     1     2     3
-5.4153000000e-05     1     1     2     4
-2.3460000000e-05     1     1     2     5
-5.5660527100e-02     1     1     2     6
 2.0093872200e-02     1     1     2     7
 5.1165210000e-04     1     1     2     8
-2.0596420000e-04     1     1     2     9
-9.8017049000e-03     1     1     3     2
 8.9396469300e-02     1     1     3     3
-8.1133000000e-06     1     1     3     4
-2.9842000000e-06     1     1     3     5
-4.1302098000e-03     1     1     3     6
-6.3909424200e-02     1     1     3     7
-1.3982803000e-03     1     1     3     8
 5.9298060000e-04     1     1     3     9
-5.4153000000e-05     1     1     4     2
-8.1133000000e-06     1     1     4     3
 9.5083583400e-02     1     1     4     4
-3.1850000000e-07     1     1     4     5
-1.9252500000e-05     1     1     4     6
 1.4967068000e-03     1     1     4     7
-4.9783919500e-02     1     1     4     8
 4.1195037600e-02     1     1     4     9
-2.3460000000e-05     1     1     5     2
-2.9842000000e-06     1     1     5     3
-3.1850000000e-07     1     1     5     4
 9.5082232800e-02     1     1     5     5
-8.5693000000e-06     1     1     5     6
 4.5201200000e-04     1     1     5     7
-4.1196622500e-02     1     1     5     8
-4.9805393400e-02     1     1     5     9
-5.5660527100e-02     1     1     6     2
-4.1302098000e-03     1     1     6     3
-1.9252500000e-05     1     1     6     4
-8.5693000000e-06     1     1     6     5
 9.8542997100e-02     1     1     6     6
 1.4479547600e-02     1     1     6     7
 3.7438460000e-04     1     1     6     8
-1.4540120000e-04     1     1     6     9
 2.0093872200e-02     1     1     7     2
-6.3909424200e-02     1     1     7     3
 1.4967068000e-03     1     1     7     4
 4.5201200000e-04     1     1     7     5
 1.4479547600e-02     1     1     7     6
 1.2081737940e-01     1     1     7     7
 5.8204100000e-05     1     1     7     8
-2.5913900000e-05     1     1     7     9
 5.1165210000e-04     1     1     8     2
-1.3982803000e-03     1     1     8     3
-4.9783919500e-02     1     1     8     4
-4.1196622500e-02     1     1     8     5
 3.7438460000e-04     1     1     8     6
 5.8204100000e-05     1     1     8     7
 1.1750636910e-01     1     1     8     8
-7.9770000000e-07     1     1     8     9
-2.0596420000e-04     1     1     9     2
 5.9298060000e-04     1     1     9     3
 4.1195037600e-02     1     1     9     4
-4.9805393400e-02     1     1     9     5
-1.4540120000e-04     1     1     9     6
-2.5913900000e-05     1     1     9     7
-7.9770000000e-07     1     1     9     8
 1.1751094880e-01     1     1     9     9
 9.6674379000e-03     1     2     2     1
-1.7273944900e-02     1     2     2     3
-3.8379000000e-05     1     2     2     4
-1.8465200000e-05     1     2     2     5
 4.0002481800e-02     1     2     2     6
-7.1907403000e-03     1     2     2     7
-1.8743780000e-04     1     2     2     8
 7.5235400000e-05     1     2     2     9
 9.8017049000e-03     1     2     3     1
-8.4236777500e-02     1     2     3     3
-8.1430000000e-06     1     2     3     4
-4.0833000000e-06     1     2     3     5
-2.4455165000e-03     1     2     3     6
 4.7274129200e-02     1     2     3     7
 1.0309297000e-03     1     2     3     8
-4.3764150000e-04     1     2     3     9
 5.4153000000e-05     1     2     4     1
-6.2646000000e-06     1     2     4     3
-8.5038000300e-02     1     2     4     4
 3.1470000000e-07     1     2     4     5
 3.3053000000e-06     1     2     4     6
-1.1673405000e-03     1     2     4     7
 3.8620348200e-02     1     2     4     8
-3.1956474400e-02     1     2     4     9
 2.3460000000e-05     1     2     5     1
-3.1393000000e-06     1     2     5     3
 2.0300000000e-08     1     2     5     4
-8.5037261500e-02     1     2     5     5
 7.1940000000e-07     1     2     5     6
-3.5354380000e-04     1     2     5     7
 3.1958123100e-02     1     2     5     8
 3.8635984400e-02     1     2     5     9
 5.5660527100e-02     1     2     6     1
 1.3351806000e-03     1     2     6     3
 1.5234500000e-05     1     2     6     4
 6.3413000000e-06     1     2     6     5
-7.0577659700e-02     1     2     6     6
-2.1509957300e-02     1     2     6     7
-5.5257070000e-04     1     2     6     8
 2.1819840000e-04     1     2     6     9
-2.0093872200e-02     1     2     7     1
 2.8652802000e-02     1     2     7     3
-7.3850510000e-04     1     2     7     4
-2.2455980000e-04     1     2     7     5
-1.2507364900e-02     1     2     7     6
-8.8774859000e-02     1     2     7     7
-4.3594000000e-06     1     2     7     8
 4.3935000000e-06     1     2     7     9
-5.1165210000e-04     1     2     8     1
 6.2078540000e-04     1     2     8     3
 2.4294739900e-02     1     2     8     4
 2.0103709100e-02     1     2     8     5
-3.1981660000e-04     1     2     8     6
-3.9489000000e-06     1     2     8     7
-8.7782051300e-02     1     2     8     8
 8.8400000000e-08     1     2     8     9
 2.0596420000e-04     1     2     9     1
-2.6430690000e-04     1     2     9     3
-2.0102473700e-02     1     2     9     4
 2.4304875500e-02     1     2     9     5
 1.2540710000e-04     1     2     9     6
 4.0977000000e-06     1     2     9     7
 1.1660000000e-07     1     2     9     8
-8.7786466300e-02     1     2     9     9
 9.8017049000e-03     1     3     2     1
 1.7273944900e-02     1     3     2     2
-1.8784000000e-06     1     3     2     4
-9.4400000000e-07     1     3     2     5
-3.7806971000e-03     1     3     2     6
 1.8621327200e-02     1     3     2     7
 4.1014430000e-04     1     3     2     8
-1.7333460000e-04     1     3     2     9
-8.9396469300e-02     1     3     3     1
 8.4236777500e-02     1     3     3     2
-1.2622850000e-04     1     3     3     4
-5.6527600000e-05     1     3     3     5
-3.2570297900e-02     1     3     3     6
-1.6763009500e-02     1     3     3     7
-3.8274480000e-04     1     3     3     8
 1.5887340000e-04     1     3     3     9
 8.1133000000e-06     1     3     4     1
 6.2646000000e-06     1     3     4     2
 3.7098974000e-02     1     3     4     4
-6.2500000000e-08     1     3     4     5
-4.2063000000e-06     1     3     4     6
 1.4559880000e-04     1     3     4     7
-5.1570820000e-03     1     3     4     8
 4.2694081000e-03     1     3     4     9
 2.9842000000e-06     1     3     5     1
 3.1393000000e-06     1     3     5     2
 3.0300000000e-08     1     3     5     4
 3.7098841700e-02     1     3     5     5
-2.0364000000e-06     1     3     5     6
 4.2753500000e-05     1     3     5     7
-4.2685136000e-03     1     3     5     8
-5.1614427000e-03     1     3     5     9
 4.1302098000e-03     1     3     6     1
-1.3351806000e-03     1     3     6     2
-1.2269000000e-06     1     3     6     4
-5.1450000000e-07     1     3     6     5
 3.4998060000e-02     1     3     6     6
-1.7896614200e-02     1     3     6     7
-3.8188050000e-04     1     3     6     8
 1.6351910000e-04     1     3     6     9
 6.3909424200e-02     1     3     7     1
-2.8652802000e-02     1     3     7     2
 1.0138650000e-04     1     3     7     4
 3.2748700000e-05     1     3     7     5
 8.7210267000e-03     1     3     7     6
 3.7338151600e-02     1     3     7     7
-3.0113000000e-05     1     3     7     8
 1.2753300000e-05     1     3     7     9
 1.3982803000e-03     1     3     8     1
-6.2078540000e-04     1     3     8     2
-2.8880407000e-03     1     3     8     4
-2.3901589000e-03     1     3     8     5
 1.9215780000e-04     1     3     8     6
-2.3314400000e-05     1     3     8     7
 3.8453688400e-02     1     3     8     8
 1.4620000000e-07     1     3     8     9
-5.9298060000e-04     1     3     9     1
 2.6430690000e-04     1     3     9     2
 2.3899750000e-03     1     3     9     4
-2.8896681000e-03     1     3     9     5
-8.1017700000e-05     1     3     9     6
 9.9079000000e-06     1     3     9     7
 4.2970000000e-07     1     3     9     8
 3.8454883300e-02     1     3     9     9
 5.4153000000e-05     1     4     2     1
 3.8379000000e-05     1     4     2     2
 1.8784000000e-06     1     4     2     3
 2.9440000000e-07     1     4     2     5
-1.1929200000e-05     1     4     2     6
-4.2883540000e-04     1     4     2     7
 1.4325608300e-02     1     4     2     8
-1.1854000700e-02     1     4     2     9
 8.1133000000e-06     1     4     3     1
 8.1430000000e-06     1     4     3     2
 1.2622850000e-04     1     4     3     3
-9.2800000000e-08     1     4     3     5
-2.9794000000e-06     1     4     3     6
 4.4212300000e-05     1     4     3     7
-2.2690413000e-03     1     4     3     8
 1.8794331000e-03     1     4     3     9
-9.5083583400e-02     1     4     4     1
 8.5038000300e-02     1     4     4     2
-3.7098974000e-02     1     4     4     3
-5.7265600000e-05     1     4     4     5
-3.2543770200e-02     1     4     4     6
-6.5795094000e-03     1     4     4     7
-2.0720580000e-04     1     4     4     8
 9.4181100000e-05     1     4     4     9
 3.1850000000e-07     1     4     5     1
-2.0300000000e-08     1     4     5     2
-3.0300000000e-08     1     4     5     3
 1.2802910000e-04     1     4     5     5
 6.2000000000e-08     1     4     5     6
 1.3645000000e-06     1     4     5     7
-3.1692400000e-05     1     4     5     8
-2.2618400000e-05     1     4     5     9
 1.9252500000e-05     1     4     6     1
-1.5234500000e-05     1     4     6     2
 1.2269000000e-06     1     4     6     3
-5.0800000000e-08     1     4     6     5
 1.2165330000e-04     1     4     6     6
 5.0845870000e-04     1     4     6     7
-1.6514225900e-02     1     4     6     8
 1.3665764600e-02     1     4     6     9
-1.4967068000e-03     1     4     7     1
 7.3850510000e-04     1     4     7     2
-1.0138650000e-04     1     4     7     3
-1.4710000000e-07     1     4     7     5
-1.9188610000e-04     1     4     7     6
 1.4148820000e-04     1     4     7     7
 1.6438440000e-04     1     4     7     8
-1.3558910000e-04     1     4     7     9
 4.9783919500e-02     1     4     8     1
-2.4294739900e-02     1     4     8     2
 2.8880407000e-03     1     4     8     3
-4.2707000000e-06     1     4     8     5
 6.4691974000e-03     1     4     8     6
-6.4172810000e-04     1     4     8     7
 1.1246210000e-04     1     4     8     8
 4.2242000000e-06     1     4     8     9
-4.1195037600e-02     1     4     9     1
 2.0102473700e-02     1     4     9     2
-2.3899750000e-03     1     4     9     3
-1.5400200000e-05     1     4     9     5
-5.3521144000e-03     1     4     9     6
 5.3134100000e-04     1     4     9     7
 1.3117600000e-05     1     4     9     8
 1.2216340000e-04     1     4     9     9
 2.3460000000e-05     1     5     2     1
 1.8465200000e-05     1     5     2     2
 9.4400000000e-07     1     5     2     3
-2.9440000000e-07     1     5     2     4
-5.6219000000e-06     1     5     2     6
-1.2898400000e-04     1     5     2     7
 1.1854414000e-02     1     5     2     8
 1.4331108900e-02     1     5     2     9
 2.9842000000e-06     1     5     3     1
 4.0833000000e-06     1     5     3     2
 5.6527600000e-05     1     5     3     3
 9.2800000000e-08     1     5     3     4
-1.5219000000e-06     1     5     3     6
 1.0004800000e-05     1     5     3     7
-1.8783547000e-03     1     5     3     8
-2.2717746000e-03     1     5     3     9
 3.1850000000e-07     1     5     4     1
-3.1470000000e-07     1     5     4     2
 6.2500000000e-08     1     5     4     3
 5.7265600000e-05     1     5     4     4
 1.1280000000e-07     1     5     4     6
 1.5116000000e-06     1     5     4     7
-2.7421700000e-05     1     5     4     8
-7.2182000000e-06     1     5     4     9
-9.5082232800e-02     1     5     5     1
 8.5037261500e-02     1     5     5     2
-3.7098841700e-02     1     5     5     3
-1.2802910000e-04     1     5     5     4
-3.2543377800e-02     1     5     5     6
-6.5806945000e-03     1     5     5     7
-1.8436320000e-04     1     5     5     8
 5.4490100000e-05     1     5     5     9
 8.5693000000e-06     1     5     6     1
-6.3413000000e-06     1     5     6     2
 5.1450000000e-07     1     5     6     3
 5.0800000000e-08     1     5     6     4
 5.4362800000e-05     1     5     6     6
 1.5503150000e-04     1     5     6     7
-1.3665709800e-02     1     5     6     8
-1.6520931600e-02     1     5     6     9
-4.5201200000e-04     1     5     7     1
 2.2455980000e-04     1     5     7     2
-3.2748700000e-05     1     5     7     3
 1.4710000000e-07     1     5     7     4
-5.7843700000e-05     1     5     7     6
 6.1659100000e-05     1     5     7     7
 1.3584860000e-04     1     5     7     8
 1.6371170000e-04     1     5     7     9
 4.1196622500e-02     1     5     8     1
-2.0103709100e-02     1     5     8     2
 2.3901589000e-03     1     5     8     3
 4.2707000000e-06     1     5     8     4
 5.3529316000e-03     1     5     8     6
-5.3114830000e-04     1     5     8     7
 4.4345900000e-05     1     5     8     8
 1.1572300000e-05     1     5     8     9
 4.9805393400e-02     1     5     9     1
-2.4304875500e-02     1     5     9     2
 2.8896681000e-03     1     5     9     3
 1.5400200000e-05     1     5     9     4
 6.4716612000e-03     1     5     9     6
-6.4221900000e-04     1     5     9     7
-1.9736900000e-05     1     5     9     8
 6.5259100000e-05     1     5     9     9
 5.5660527100e-02     1     6     2     1
-4.0002481800e-02     1     6     2     2
 3.7806971000e-03     1     6     2     3
 1.1929200000e-05     1     6     2     4
 5.6219000000e-06     1     6     2     5
-9.0025924000e-03     1     6     2     7
-2.3275410000e-04     1     6     2     8
 9.2791300000e-05     1     6     2     9
 4.1302098000e-03     1     6     3     1
 2.4455165000e-03     1     6     3     2
 3.2570297900e-02     1     6     3     3
 2.9794000000e-06     1     6     3     4
 1.5219000000e-06     1     6     3     5
-2.6617640900e-02     1     6     3     7
-5.7403830000e-04     1     6     3     8
 2.4453680000e-04     1     6     3     9
 1.9252500000e-05     1     6     4     1
-3.3053000000e-06     1     6     4     2
 4.2063000000e-06     1     6     4     3
 3.2543770200e-02     1     6     4     4
-1.1280000000e-07     1     6     4     5
 7.0034480000e-04     1     6     4     7
-2.2983423300e-02     1     6     4     8
 1.9017879000e-02     1     6     4     9
 8.5693000000e-06     1     6     5     1
-7.1940000000e-07     1     6     5     2
 2.0364000000e-06     1     6     5     3
-6.2000000000e-08     1     6     5     4
 3.2543377800e-02     1     6     5     5
 2.1287520000e-04     1     6     5     7
-1.9018641400e-02     1     6     5     8
-2.2992592800e-02     1     6     5     9
-9.8542997100e-02     1     6     6     1
 7.0577659700e-02     1     6     6     2
-3.4998060000e-02     1     6     6     3
-1.2165330000e-04     1     6     6     4
-5.4362800000e-05     1     6     6     5
 7.4661080000e-03     1     6     6     7
 2.0151130000e-04     1     6     6     8
-7.9085400000e-05     1     6     6     9
-1.4479547600e-02     1     6     7     1
 1.2507364900e-02     1     6     7     2
-8.7210267000e-03     1     6     7     3
 1.9188610000e-04     1     6     7     4
 5.7843700000e-05     1     6     7     5
 2.4679193700e-02     1     6     7     7
 6.2600300000e-05     1     6     7     8
-2.6685900000e-05     1     6     7     9
-3.7438460000e-04     1     6     8     1
 3.1981660000e-04     1     6     8     2
-1.9215780000e-04     1     6     8     3
-6.4691974000e-03     1     6     8     4
-5.3529316000e-03     1     6     8     5
 6.1589900000e-05     1     6     8     7
 2.1723118600e-02     1     6     8     8
-5.1100000000e-07     1     6     8     9
 1.4540120000e-04     1     6     9     1
-1.2540710000e-04     1     6     9     2
 8.1017700000e-05     1     6     9     3
 5.3521144000e-03     1     6     9     4
-6.4716612000e-03     1     6     9     5
-2.5603500000e-05     1     6     9     7
-4.2240000000e-07     1     6     9     8
 2.1723530200e-02     1     6     9     9
-2.0093872200e-02     1     7     2     1
 7.1907403000e-03     1     7     2     2
-1.8621327200e-02     1     7     2     3
 4.2883540000e-04     1     7     2     4
 1.2898400000e-04     1     7     2     5
 9.0025924000e-03     1     7     2     6
-4.1050000000e-07     1     7     2     8
 2.9580000000e-07     1     7     2     9
 6.3909424200e-02     1     7     3     1
-4.7274129200e-02     1     7     3     2
 1.6763009500e-02     1     7     3     3
-4.4212300000e-05     1     7     3     4
-1.0004800000e-05     1     7     3     5
 2.6617640900e-02     1     7     3     6
-6.7986000000e-06     1     7     3     8
 2.8454000000e-06     1     7     3     9
-1.4967068000e-03     1     7     4     1
 1.1673405000e-03     1     7     4     2
-1.4559880000e-04     1     7     4     3
 6.5795094000e-03     1     7     4     4
-1.5116000000e-06     1     7     4     5
-7.0034480000e-04     1     7     4     6
 8.0611250000e-04     1     7     4     8
-6.6693010000e-04     1     7     4     9
-4.5201200000e-04     1     7     5     1
 3.5354380000e-04     1     7     5     2
-4.2753500000e-05     1     7     5     3
-1.3645000000e-06     1     7     5     4
 6.5806945000e-03     1     7     5     5
-2.1287520000e-04     1     7     5     6
 6.6699690000e-04     1     7     5     8
 8.0593070000e-04     1     7     5     9
-1.4479547600e-02     1     7     6     1
 2.1509957300e-02     1     7     6     2
 1.7896614200e-02     1     7     6     3
-5.0845870000e-04     1     7     6     4
-1.5503150000e-04     1     7     6     5
-7.4661080000e-03     1     7     6     6
 1.0104000000e-06     1     7     6     8
-1.0824000000e-06     1     7     6     9
-1.2081737940e-01     1     7     7     1
 8.8774859000e-02     1     7     7     2
-3.7338151600e-02     1     7     7     3
-1.4148820000e-04     1     7     7     4
-6.1659100000e-05     1     7     7     5
-2.4679193700e-02     1     7     7     6
-1.1054150000e-04     1     7     7     8
 4.3956600000e-05     1     7     7     9
-5.8204100000e-05     1     7     8     1
 3.9489000000e-06     1     7     8     2
 2.3314400000e-05     1     7     8     3
 6.4172810000e-04     1     7     8     4
 5.3114830000e-04     1     7     8     5
-6.1589900000e-05     1     7     8     6
 4.5250709000e-03     1     7     8     8
-3.7800000000e-08     1     7     8     9
 2.5913900000e-05     1     7     9     1
-4.0977000000e-06     1     7     9     2
-9.9079000000e-06     1     7     9     3
-5.3134100000e-04     1     7     9     4
 6.4221900000e-04     1     7     9     5
 2.5603500000e-05     1     7     9     6
 3.3000000000e-08     1     7     9     8
 4.5247917000e-03     1     7     9     9
-5.1165210000e-04     1     8     2     1
 1.8743780000e-04     1     8     2     2
-4.1014430000e-04     1     8     2     3
-1.4325608300e-02     1     8     2     4
-1.1854414000e-02     1     8     2     5
 2.3275410000e-04     1     8     2     6
 4.1050000000e-07     1     8     2     7
-2.8200000000e-08     1     8     2     9
 1.3982803000e-03     1     8     3     1
-1.0309297000e-03     1     8     3     2
 3.8274480000e-04     1     8     3     3
 2.2690413000e-03     1     8     3     4
 1.8783547000e-03     1     8     3     5
 5.7403830000e-04     1     8     3     6
 6.7986000000e-06     1     8     3     7
-2.8350000000e-07     1     8     3     9
 4.9783919500e-02     1     8     4     1
-3.8620348200e-02     1     8     4     2
 5.1570820000e-03     1     8     4     3
 2.0720580000e-04     1     8     4     4
 2.7421700000e-05     1     8     4     5
 2.2983423300e-02     1     8     4     6
-8.0611250000e-04     1     8     4     7
-8.8934000000e-06     1     8     4     9
 4.1196622500e-02     1     8     5     1
-3.1958123100e-02     1     8     5     2
 4.2685136000e-03     1     8     5     3
 3.1692400000e-05     1     8     5     4
 1.8436320000e-04     1     8     5     5
 1.9018641400e-02     1     8     5     6
-6.6699690000e-04     1     8     5     7
 3.1309200000e-05     1     8     5     9
-3.7438460000e-04     1     8     6     1
 5.5257070000e-04     1     8     6     2
 3.8188050000e-04     1     8     6     3
 1.6514225900e-02     1     8     6     4
 1.3665709800e-02     1     8     6     5
-2.0151130000e-04     1     8     6     6
-1.0104000000e-06     1     8     6     7
-8.8600000000e-08     1     8     6     9
-5.8204100000e-05     1     8     7     1
 4.3594000000e-06     1     8     7     2
 3.0113000000e-05     1     8     7     3
-1.6438440000e-04     1     8     7     4
-1.3584860000e-04     1     8     7     5
-6.2600300000e-05     1     8     7     6
 1.1054150000e-04     1     8     7     7
-7.0800000000e-08     1     8     7     9
-1.1750636910e-01     1     8     8     1
 8.7782051300e-02     1     8     8     2
-3.8453688400e-02     1     8     8     3
-1.1246210000e-04     1     8     8     4
-4.4345900000e-05     1     8     8     5
-2.1723118600e-02     1     8     8     6
-4.5250709000e-03     1     8     8     7
 4.5949300000e-05     1     8     8     9
 7.9770000000e-07     1     8     9     1
-1.1660000000e-07     1     8     9     2
-4.2970000000e-07     1     8     9     3
-1.3117600000e-05     1     8     9     4
 1.9736900000e-05     1     8     9     5
 4.2240000000e-07     1     8     9     6
-3.3000000000e-08     1     8     9     7
 1.1638140000e-04     1     8     9     9
 2.0596420000e-04     1     9     2     1
-7.5235400000e-05     1     9     2     2
 1.7333460000e-04     1     9     2     3
 1.1854000700e-02     1     9     2     4
-1.4331108900e-02     1     9     2     5
-9.2791300000e-05     1     9     2     6
-2.9580000000e-07     1     9     2     7
 2.8200000000e-08     1     9     2     8
-5.9298060000e-04     1     9     3     1
 4.3764150000e-04     1     9     3     2
-1.5887340000e-04     1     9     3     3
-1.8794331000e-03     1     9     3     4
 2.2717746000e-03     1     9     3     5
-2.4453680000e-04     1     9     3     6
-2.8454000000e-06     1     9     3     7
 2.8350000000e-07     1     9     3     8
-4.1195037600e-02     1     9     4     1
 3.1956474400e-02     1     9     4     2
-4.2694081000e-03     1     9     4     3
-9.4181100000e-05     1     9     4     4
 7.2182000000e-06     1     9     4     5
-1.9017879000e-02     1     9     4     6
 6.6693010000e-04     1     9     4     7
 8.8934000000e-06     1     9     4     8
 4.9805393400e-02     1     9     5     1
-3.8635984400e-02     1     9     5     2
 5.1614427000e-03     1     9     5     3
 2.2618400000e-05     1     9     5     4
-5.4490100000e-05     1     9     5     5
 2.2992592800e-02     1     9     5     6
-8.0593070000e-04     1     9     5     7
-3.1309200000e-05     1     9     5     8
 1.4540120000e-04     1     9     6     1
-2.1819840000e-04     1     9     6     2
-1.6351910000e-04     1     9     6     3
-1.3665764600e-02     1     9     6     4
 1.6520931600e-02     1     9     6     5
 7.9085400000e-05     1     9     6     6
 1.0824000000e-06     1     9     6     7
 8.8600000000e-08     1     9     6     8
 2.5913900000e-05     1     9     7     1
-4.3935000000e-06     1     9     7     2
-1.2753300000e-05     1     9     7     3
 1.3558910000e-04     1     9     7     4
-1.6371170000e-04     1     9     7     5
 2.6685900000e-05     1     9     7     6
-4.3956600000e-05     1     9     7     7
 7.0800000000e-08     1     9     7     8
 7.9770000000e-07     1     9     8     1
-8.8400000000e-08     1     9     8     2
-1.4620000000e-07     1     9     8     3
-4.2242000000e-06     1     9     8     4
-1.1572300000e-05     1     9     8     5
 5.1100000000e-07     1     9     8     6
 3.7800000000e-08     1     9     8     7
-4.5949300000e-05     1     9     8     8
-1.1751094880e-01     1     9     9     1
 8.7786466300e-02     1     9     9     2
-3.8454883300e-02     1     9     9     3
-1.2216340000e-04     1     9     9     4
-6.5259100000e-05     1     9     9     5
-2.1723530200e-02     1     9     9     6
-4.5247917000e-03     1     9     9     7
-1.1638140000e-04     1     9     9     8
 9.6674379000e-03     2     1     1     2
 9.8017049000e-03     2     1     1     3
 5.4153000000e-05     2     1     1     4
 2.3460000000e-05     2     1     1     5
 5.5660527100e-02     2     1     1     6
-2.0093872200e-02     2     1     1     7
-5.1165210000e-04     2     1     1     8
 2.0596420000e-04     2     1     1     9
-1.7273944900e-02     2     1     3     2
-8.4236777500e-02     2     1     3     3
-6.2646000000e-06     2     1     3     4
-3.1393000000e-06     2     1     3     5
 1.3351806000e-03     2     1     3     6
 2.8652802000e-02     2     1     3     7
 6.2078540000e-04     2     1     3     8
-2.6430690000e-04     2     1     3     9
-3.8379000000e-05     2     1     4     2
-8.1430000000e-06     2     1     4     3
-8.5038000300e-02     2     1     4     4
 2.0300000000e-08     2     1     4     5
 1.5234500000e-05     2     1     4     6
-7.3850510000e-04     2     1     4     7
 2.4294739900e-02     2     1     4     8
-2.0102473700e-02     2     1     4     9
-1.8465200000e-05     2     1     5     2
-4.0833000000e-06     2     1     5     3
 3.1470000000e-07     2     1     5     4
-8.5037261500e-02     2     1     5     5
 6.3413000000e-06     2     1     5     6
-2.2455980000e-04     2     1     5     7
 2.0103709100e-02     2     1     5     8
 2.4304875500e-02     2     1     5     9
 4.0002481800e-02     2     1     6     2
-2.4455165000e-03     2     1     6     3
 3.3053000000e-06     2     1     6     4
 7.1940000000e-07     2     1     6     5
-7.0577659700e-02     2     1     6     6
-1.2507364900e-02     2     1     6     7
-3.1981660000e-04     2     1     6     8
 1.2540710000e-04     2     1     6     9
-7.1907403000e-03     2     1     7     2
 4.7274129200e-02     2     1     7     3
-1.1673405000e-03     2     1     7     4
-3.5354380000e-04     2     1     7     5
-2.1509957300e-02     2     1     7     6
-8.8774859000e-02     2     1     7     7
-3.9489000000e-06     2     1     7     8
 4.0977000000e-06     2     1     7     9
-1.8743780000e-04     2     1     8     2
 1.0309297000e-03     2     1     8     3
 3.8620348200e-02     2     1     8     4
 3.1958123100e-02     2     1     8     5
-5.5257070000e-04     2     1     8     6
-4.3594000000e-06     2     1     8     7
-8.7782051300e-02     2     1     8     8
 1.1660000000e-07     2     1     8     9
 7.5235400000e-05     2     1     9     2
-4.3764150000e-04     2     1     9     3
-3.1956474400e-02     2     1     9     4
 3.8635984400e-02     2     1     9     5
 2.1819840000e-04     2     1     9     6
 4.3935000000e-06     2     1     9     7
 8.8400000000e-08     2     1     9     8
-8.7786466300e-02     2     1     9     9
-9.6674379000e-03     2     2     1     1
 1.7273944900e-02     2     2     1     3
 3.8379000000e-05     2     2     1     4
 1.8465200000e-05     2     2     1     5
-4.0002481800e-02     2     2     1     6
 7.1907403000e-03     2     2     1     7
 1.8743780000e-04     2     2     1     8
-7.5235400000e-05     2     2     1     9
 1.7273944900e-02     2     2     3     1
 4.4681213300e-02     2     2     3     3
-2.0795100000e-05     2     2     3     4
-8.6616000000e-06     2     2     3     5
-1.9156030400e-02     2     2     3     6
-3.3988659600e-02     2     2     3     7
-7.3736730000e-04     2     2     3     8
 3.1354250000e-04     2     2     3     9
 3.8379000000e-05     2     2     4     1
-2.0795100000e-05     2     2     4     3
 5.0825185600e-02     2     2     4     4
-1.8780000000e-07     2     2     4     5
-7.7310400000e-05     2     2     4     6
 7.9708900000e-04     2     2     4     7
-2.6344419700e-02     2     2     4     8
 2.1800274300e-02     2     2     4     9
 1.8465200000e-05     2     2     5     1
-8.6616000000e-06     2     2     5     3
-1.8780000000e-07     2     2     5     4
 5.0824544900e-02     2     2     5     5
-3.4103700000e-05     2     2     5     6
 2.4152030000e-04     2     2     5     7
-2.1800902300e-02     2     2     5     8
-2.6356871800e-02     2     2     5     9
-4.0002481800e-02     2     2     6     1
-1.9156030400e-02     2     2     6     3
-7.7310400000e-05     2     2     6     4
-3.4103700000e-05     2     2     6     5
 1.4270929400e-02     2     2     6     6
 4.3235876000e-03     2     2     6     7
 1.1245900000e-04     2     2     6     8
-4.2824600000e-05     2     2     6     9
 7.1907403000e-03     2     2     7     1
-3.3988659600e-02     2     2     7     3
 7.9708900000e-04     2     2     7     4
 2.4152030000e-04     2     2     7     5
 4.3235876000e-03     2     2     7     6
 4.8832441200e-02     2     2     7     7
 7.4541900000e-05     2     2     7     8
-3.0589500000e-05     2     2     7     9
 1.8743780000e-04     2     2     8     1
-7.3736730000e-04     2     2     8     3
-2.6344419700e-02     2     2     8     4
-2.1800902300e-02     2     2     8     5
 1.1245900000e-04     2     2     8     6
 7.4541900000e-05     2     2     8     7
 4.5680148900e-02     2     2     8     8
-9.2390000000e-07     2     2     8     9
-7.5235400000e-05     2     2     9     1
 3.1354250000e-04     2     2     9     3
 2.1800274300e-02     2     2     9     4
-2.6356871800e-02     2     2     9     5
-4.2824600000e-05     2     2     9     6
-3.0589500000e-05     2     2     9     7
-9.2390000000e-07     2     2     9     8
 4.5681160600e-02     2     2     9     9
-9.8017049000e-03     2     3     1     1
-1.7273944900e-02     2     3     1     2
 1.8784000000e-06     2     3     1     4
 9.4400000000e-07     2     3     1     5
 3.7806971000e-03     2     3     1     6
-1.8621327200e-02     2     3     1     7
-4.1014430000e-04     2     3     1     8
 1.7333460000e-04     2     3     1     9