&FCI NORB=  9,NELEC=  2,MS2=0,
 ORBSYM=1,1,1,1,1,1,1,1,1
 ISYM=1,
&END
-6.9090092200e-02     1     1     2     2
 3.6093884800e-02     1     1     2     3
-2.9463073000e-03     1     1     2     4
-6.3342100000e-05     1     1     2     5
 1.2739300000e-05     1     1     2     6
 2.2636284000e-03     1     1     2     7
-4.6068049000e-03     1     1     2     8
 7.6774800000e-05     1     1     2     9
 3.6093884800e-02     1     1     3     2
 6.7139934300e-02     1     1     3     3
 1.0788619000e-03     1     1     3     4
 2.2886000000e-05     1     1     3     5
-4.8605000000e-06     1     1     3     6
-6.8057519900e-02     1     1     3     7
-4.5960110000e-02     1     1     3     8
 6.3054580000e-04     1     1     3     9
-2.9463073000e-03     1     1     4     2
 1.0788619000e-03     1     1     4     3
 8.7246075400e-02     1     1     4     4
-8.5272600000e-05     1     1     4     5
 1.7951300000e-05     1     1     4     6
 4.0233007600e-02     1     1     4     7
-5.8237719300e-02     1     1     4     8
-3.8779800000e-04     1     1     4     9
-6.3342100000e-05     1     1     5     2
 2.2886000000e-05     1     1     5     3
-8.5272600000e-05     1     1     5     4
 9.3102208700e-02     1     1     5     5
 4.6050000000e-07     1     1     5     6
 7.5029870000e-04     1     1     5     7
 1.0672480000e-04     1     1     5     8
 5.5962997300e-02     1     1     5     9
 1.2739300000e-05     1     1     6     2
-4.8605000000e-06     1     1     6     3
 1.7951300000e-05     1     1     6     4
 4.6050000000e-07     1     1     6     5
 9.3102753000e-02     1     1     6     6
-1.6056730000e-04     1     1     6     7
 2.5862470000e-04     1     1     6     8
-4.0227083600e-02     1     1     6     9
 2.2636284000e-03     1     1     7     2
-6.8057519900e-02     1     1     7     3
 4.0233007600e-02     1     1     7     4
 7.5029870000e-04     1     1     7     5
-1.6056730000e-04     1     1     7     6
 1.2581326690e-01     1     1     7     7
 4.6753952000e-03     1     1     7     8
-9.6111000000e-05     1     1     7     9
-4.6068049000e-03     1     1     8     2
-4.5960110000e-02     1     1     8     3
-5.8237719300e-02     1     1     8     4
 1.0672480000e-04     1     1     8     5
 2.5862470000e-04     1     1     8     6
 4.6753952000e-03     1     1     8     7
 1.3593185980e-01     1     1     8     8
 2.7584200000e-05     1     1     8     9
 7.6774800000e-05     1     1     9     2
 6.3054580000e-04     1     1     9     3
-3.8779800000e-04     1     1     9     4
 5.5962997300e-02     1     1     9     5
-4.0227083600e-02     1     1     9     6
-9.6111000000e-05     1     1     9     7
 2.7584200000e-05     1     1     9     8
 1.4111336840e-01     1     1     9     9
 6.9090092200e-02     1     2     2     1
-2.0215168100e-02     1     2     2     3
 9.7946176000e-03     1     2     2     4
 2.1133830000e-04     1     2     2     5
-4.3560800000e-05     1     2     2     6
-2.1275935000e-03     1     2     2     7
 3.4918370000e-03     1     2     2     8
-6.1227600000e-05     1     2     2     9
-3.6093884800e-02     1     2     3     1
-6.4625298800e-02     1     2     3     3
-4.2347857000e-03     1     2     3     4
-8.9236500000e-05     1     2     3     5
 1.8445300000e-05     1     2     3     6
 4.3247614500e-02     1     2     3     7
 2.1234232400e-02     1     2     3     8
-2.7362170000e-04     1     2     3     9
 2.9463073000e-03     1     2     4     1
-5.5838026000e-03     1     2     4     3
-8.4491794500e-02     1     2     4     4
 6.1587600000e-05     1     2     4     5
-1.2865400000e-05     1     2     4     6
-2.4108669200e-02     1     2     4     7
 3.5540249700e-02     1     2     4     8
 2.0663360000e-04     1     2     4     9
 6.3342100000e-05     1     2     5     1
-1.1874750000e-04     1     2     5     3
 6.2235800000e-05     1     2     5     4
-8.7779073500e-02     1     2     5     5
-2.8100000000e-07     1     2     5     6
-4.5103740000e-04     1     2     5     7
-3.4426100000e-05     1     2     5     8
-3.3069059100e-02     1     2     5     9
-1.2739300000e-05     1     2     6     1
 2.4534300000e-05     1     2     6     3
-1.2947500000e-05     1     2     6     4
-3.4120000000e-07     1     2     6     5
-8.7779553800e-02     1     2     6     6
 9.6472300000e-05     1     2     6     7
-1.5856730000e-04     1     2     6     8
 2.3770234100e-02     1     2     6     9
-2.2636284000e-03     1     2     7     1
 3.7030081700e-02     1     2     7     3
-1.8041544700e-02     1     2     7     4
-3.3480770000e-04     1     2     7     5
 7.1739400000e-05     1     2     7     6
-9.9498950500e-02     1     2     7     7
-4.1337319000e-03     1     2     7     8
 8.3623400000e-05     1     2     7     9
 4.6068049000e-03     1     2     8     1
 1.7884322000e-02     1     2     8     3
 2.6983687300e-02     1     2     8     4
-4.5909900000e-05     1     2     8     5
-1.2044490000e-04     1     2     8     6
-4.9986425000e-03     1     2     8     7
-1.0910370360e-01     1     2     8     8
 5.0468000000e-06     1     2     8     9
-7.6774800000e-05     1     2     9     1
-2.2881380000e-04     1     2     9     3
 1.7651550000e-04     1     2     9     4
-2.5974171700e-02     1     2     9     5
 1.8670205600e-02     1     2     9     6
 9.8265300000e-05     1     2     9     7
 5.9450000000e-06     1     2     9     8
-1.1119664220e-01     1     2     9     9
-3.6093884800e-02     1     3     2     1
 2.0215168100e-02     1     3     2     2
 1.3490169000e-03     1     3     2     4
 2.9511000000e-05     1     3     2     5
-6.0890000000e-06     1     3     2     6
 6.2175328000e-03     1     3     2     7
 3.3499104000e-03     1     3     2     8
-4.4807900000e-05     1     3     2     9
-6.7139934300e-02     1     3     3     1
 6.4625298800e-02     1     3     3     2
 3.7788755000e-03     1     3     3     4
 8.0326300000e-05     1     3     3     5
-1.7288100000e-05     1     3     3     6
 3.2155984200e-02     1     3     3     7
 2.6050562800e-02     1     3     3     8
-3.6977480000e-04     1     3     3     9
-1.0788619000e-03     1     3     4     1
 5.5838026000e-03     1     3     4     2
-6.1914129900e-02     1     3     4     4
 1.7206100000e-05     1     3     4     5
-3.6665000000e-06     1     3     4     6
-2.2397051900e-02     1     3     4     7
 3.5386437900e-02     1     3     4     8
 2.5815410000e-04     1     3     4     9
-2.2886000000e-05     1     3     5     1
 1.1874750000e-04     1     3     5     2
 1.7284700000e-05     1     3     5     4
-6.3548946900e-02     1     3     5     5
-2.0100000000e-08     1     3     5     6
-4.0971060000e-04     1     3     5     7
-8.1974600000e-05     1     3     5     8
-3.4943063600e-02     1     3     5     9
 4.8605000000e-06     1     3     6     1
-2.4534300000e-05     1     3     6     2
-3.6419000000e-06     1     3     6     4
-1.8280000000e-07     1     3     6     5
-6.3549014000e-02     1     3     6     6
 8.7956800000e-05     1     3     6     7
-1.5656770000e-04     1     3     6     8
 2.5117672500e-02     1     3     6     9
 6.8057519900e-02     1     3     7     1
-3.7030081700e-02     1     3     7     2
-7.6188033000e-03     1     3     7     4
-1.4288720000e-04     1     3     7     5
 3.0708000000e-05     1     3     7     6
-6.3489026900e-02     1     3     7     7
-1.3658756000e-03     1     3     7     8
 3.0427100000e-05     1     3     7     9
 4.5960110000e-02     1     3     8     1
-1.7884322000e-02     1     3     8     2
 9.7920843000e-03     1     3     8     4
-2.1842500000e-05     1     3     8     5
-4.3216300000e-05     1     3     8     6
-1.1399787000e-03     1     3     8     7
-6.9542594000e-02     1     3     8     8
 3.4476000000e-06     1     3     8     9
-6.3054580000e-04     1     3     9     1
 2.2881380000e-04     1     3     9     2
 6.8390000000e-05     1     3     9     4
-9.4874820000e-03     1     3     9     5
 6.8186394000e-03     1     3     9     6
 2.5798900000e-05     1     3     9     7
 3.1319000000e-06     1     3     9     8
-7.1168325000e-02     1     3     9     9
 2.9463073000e-03     1     4     2     1
-9.7946176000e-03     1     4     2     2
-1.3490169000e-03     1     4     2     3
-6.4820000000e-07     1     4     2     5
 8.2100000000e-08     1     4     2     6
-6.0671245000e-03     1     4     2     7
 8.5565624000e-03     1     4     2     8
 3.0118100000e-05     1     4     2     9
-1.0788619000e-03     1     4     3     1
 4.2347857000e-03     1     4     3     2
-3.7788755000e-03     1     4     3     3
-7.8600000000e-08     1     4     3     5
-2.4600000000e-08     1     4     3     6
-1.4778248600e-02     1     4     3     7
 2.5594353600e-02     1     4     3     8
 1.8976410000e-04     1     4     3     9
-8.7246075400e-02     1     4     4     1
 8.4491794500e-02     1     4     4     2
 6.1914129900e-02     1     4     4     3
 1.2129910000e-04     1     4     4     5
-2.5964300000e-05     1     4     4     6
-1.5208859900e-02     1     4     4     7
-9.5106981000e-03     1     4     4     8
 3.0295700000e-05     1     4     4     9
 8.5272600000e-05     1     4     5     1
-6.2235800000e-05     1     4     5     2
-1.7284700000e-05     1     4     5     3
-5.6522376000e-03     1     4     5     5
 2.2000000000e-09     1     4     5     6
 6.2217900000e-05     1     4     5     7
-2.3842600000e-05     1     4     5     8
 2.1898806000e-03     1     4     5     9
-1.7951300000e-05     1     4     6     1
 1.2947500000e-05     1     4     6     2
 3.6419000000e-06     1     4     6     3
 5.4000000000e-09     1     4     6     5
-5.6522434000e-03     1     4     6     6
-1.2948900000e-05     1     4     6     7
 1.6087200000e-05     1     4     6     8
-1.5737520000e-03     1     4     6     9
-4.0233007600e-02     1     4     7     1
 1.8041544700e-02     1     4     7     2
 7.6188033000e-03     1     4     7     3
-7.8490000000e-07     1     4     7     5
-1.5500000000e-08     1     4     7     6
-1.4762267700e-02     1     4     7     7
-7.5788938000e-03     1     4     7     8
 3.0293300000e-05     1     4     7     9
 5.8237719300e-02     1     4     8     1
-2.6983687300e-02     1     4     8     2
-9.7920843000e-03     1     4     8     3
 1.3692000000e-06     1     4     8     5
 1.6630000000e-07     1     4     8     6
 1.3807125300e-02     1     4     8     7
 1.1991354000e-03     1     4     8     8
-1.3695680000e-04     1     4     8     9
 3.8779800000e-04     1     4     9     1
-1.7651550000e-04     1     4     9     2
-6.8390000000e-05     1     4     9     3
 5.7059500000e-05     1     4     9     5
-4.0857000000e-05     1     4     9     6
 7.1804200000e-05     1     4     9     7
 4.1423900000e-05     1     4     9     8
-7.1531751000e-03     1     4     9     9
 6.3342100000e-05     1     5     2     1
-2.1133830000e-04     1     5     2     2
-2.9511000000e-05     1     5     2     3
 6.4820000000e-07     1     5     2     4
 6.0200000000e-08     1     5     2     6
-1.1622970000e-04     1     5     2     7
 1.1483800000e-05     1     5     2     8
-7.0948874000e-03     1     5     2     9
-2.2886000000e-05     1     5     3     1
 8.9236500000e-05     1     5     3     2
-8.0326300000e-05     1     5     3     3
 7.8600000000e-08     1     5     3     4
 1.6270000000e-07     1     5     3     6
-2.6682340000e-04     1     5     3     7
-6.0132100000e-05     1     5     3     8
-2.5455581600e-02     1     5     3     9
 8.5272600000e-05     1     5     4     1
-6.1587600000e-05     1     5     4     2
-1.7206100000e-05     1     5     4     3
-1.2129910000e-04     1     5     4     4
-3.2000000000e-09     1     5     4     6
 6.3002800000e-05     1     5     4     7
-2.5211800000e-05     1     5     4     8
 2.1328211000e-03     1     5     4     9
-9.3102208700e-02     1     5     5     1
 8.7779073500e-02     1     5     5     2
 6.3548946900e-02     1     5     5     3
 5.6522376000e-03     1     5     5     4
-2.5860200000e-05     1     5     5     6
-1.8340643800e-02     1     5     5     7
-6.6969448000e-03     1     5     5     8
 1.6757590000e-04     1     5     5     9
-4.6050000000e-07     1     5     6     1
 3.4120000000e-07     1     5     6     2
 1.8280000000e-07     1     5     6     3
-5.4000000000e-09     1     5     6     4
-1.2056840000e-04     1     5     6     6
-1.1710000000e-07     1     5     6     7
-1.7411000000e-06     1     5     6     8
-4.5132900000e-05     1     5     6     9
-7.5029870000e-04     1     5     7     1
 3.3480770000e-04     1     5     7     2
 1.4288720000e-04     1     5     7     3
 7.8490000000e-07     1     5     7     4
 1.1700000000e-07     1     5     7     6
-2.9454990000e-04     1     5     7     7
-7.2454700000e-05     1     5     7     8
 3.6997384000e-03     1     5     7     9
-1.0672480000e-04     1     5     8     1
 4.5909900000e-05     1     5     8     2
 2.1842500000e-05     1     5     8     3
-1.3692000000e-06     1     5     8     4
 9.2200000000e-08     1     5     8     6
-5.9082000000e-06     1     5     8     7
-1.3805550000e-04     1     5     8     8
 1.1722593000e-03     1     5     8     9
-5.5962997300e-02     1     5     9     1
 2.5974171700e-02     1     5     9     2
 9.4874820000e-03     1     5     9     3
-5.7059500000e-05     1     5     9     4
-9.8140000000e-07     1     5     9     6
-1.2006127700e-02     1     5     9     7
-7.4562987000e-03     1     5     9     8
-6.2978700000e-05     1     5     9     9
-1.2739300000e-05     1     6     2     1
 4.3560800000e-05     1     6     2     2
 6.0890000000e-06     1     6     2     3
-8.2100000000e-08     1     6     2     4
-6.0200000000e-08     1     6     2     5
 2.4732900000e-05     1     6     2     7
-3.8122400000e-05     1     6     2     8
 5.1000285000e-03     1     6     2     9
 4.8605000000e-06     1     6     3     1
-1.8445300000e-05     1     6     3     2
 1.7288100000e-05     1     6     3     3
 2.4600000000e-08     1     6     3     4
-1.6270000000e-07     1     6     3     5
 5.7248800000e-05     1     6     3     7
-1.1335140000e-04     1     6     3     8
 1.8299033100e-02     1     6     3     9
-1.7951300000e-05     1     6     4     1
 1.2865400000e-05     1     6     4     2
 3.6665000000e-06     1     6     4     3
 2.5964300000e-05     1     6     4     4
 3.2000000000e-09     1     6     4     5
-1.2933400000e-05     1     6     4     7
 1.5920900000e-05     1     6     4     8
-1.5328950000e-03     1     6     4     9
-4.6050000000e-07     1     6     5     1
 2.8100000000e-07     1     6     5     2
 2.0100000000e-08     1     6     5     3
-2.2000000000e-09     1     6     5     4
 2.5860200000e-05     1     6     5     5
-2.3410000000e-07     1     6     5     7
-1.8333000000e-06     1     6     5     8
-4.4151500000e-05     1     6     5     9
-9.3102753000e-02     1     6     6     1
 8.7779553800e-02     1     6     6     2
 6.3549014000e-02     1     6     6     3
 5.6522434000e-03     1     6     6     4
 1.2056840000e-04     1     6     6     5
-1.8341879700e-02     1     6     6     7
-6.6997723000e-03     1     6     6     8
 9.1156100000e-05     1     6     6     9
 1.6056730000e-04     1     6     7     1
-7.1739400000e-05     1     6     7     2
-3.0708000000e-05     1     6     7     3
 1.5500000000e-08     1     6     7     4
-1.1700000000e-07     1     6     7     5
 6.3037300000e-05     1     6     7     7
 3.0212300000e-05     1     6     7     8
-2.6594268000e-03     1     6     7     9
-2.5862470000e-04     1     6     8     1
 1.2044490000e-04     1     6     8     2
 4.3216300000e-05     1     6     8     3
-1.6630000000e-07     1     6     8     4
-9.2200000000e-08     1     6     8     5
-6.1569800000e-05     1     6     8     7
-3.0115000000e-06     1     6     8     8
-8.4264350000e-04     1     6     8     9
 4.0227083600e-02     1     6     9     1
-1.8670205600e-02     1     6     9     2
-6.8186394000e-03     1     6     9     3
 4.0857000000e-05     1     6     9     4
 9.8140000000e-07     1     6     9     5
 8.6299895000e-03     1     6     9     7
 5.3597035000e-03     1     6     9     8
-2.8483300000e-05     1     6     9     9
-2.2636284000e-03     1     7     2     1
 2.1275935000e-03     1     7     2     2
-6.2175328000e-03     1     7     2     3
 6.0671245000e-03     1     7     2     4
 1.1622970000e-04     1     7     2     5
-2.4732900000e-05     1     7     2     6
 8.6491060000e-04     1     7     2     8
-1.4641900000e-05     1     7     2     9
 6.8057519900e-02     1     7     3     1
-4.3247614500e-02     1     7     3     2
-3.2155984200e-02     1     7     3     3
 1.4778248600e-02     1     7     3     4
 2.6682340000e-04     1     7     3     5
-5.7248800000e-05     1     7     3     6
-2.2589690000e-04     1     7     3     8
 4.6282000000e-06     1     7     3     9
-4.0233007600e-02     1     7     4     1
 2.4108669200e-02     1     7     4     2
 2.2397051900e-02     1     7     4     3
 1.5208859900e-02     1     7     4     4
-6.3002800000e-05     1     7     4     5
 1.2933400000e-05     1     7     4     6
-2.1386019100e-02     1     7     4     8
-4.1510900000e-05     1     7     4     9
-7.5029870000e-04     1     7     5     1
 4.5103740000e-04     1     7     5     2
 4.0971060000e-04     1     7     5     3
-6.2217900000e-05     1     7     5     4
 1.8340643800e-02     1     7     5     5
 2.3410000000e-07     1     7     5     6
-6.6546500000e-05     1     7     5     8
 1.5705866100e-02     1     7     5     9
 1.6056730000e-04     1     7     6     1
-9.6472300000e-05     1     7     6     2
-8.7956800000e-05     1     7     6     3
 1.2948900000e-05     1     7     6     4
 1.1710000000e-07     1     7     6     5
 1.8341879700e-02     1     7     6     6
 9.1782100000e-05     1     7     6     8
-1.1289416300e-02     1     7     6     9
-1.2581326690e-01     1     7     7     1
 9.9498950500e-02     1     7     7     2
 6.3489026900e-02     1     7     7     3
 1.4762267700e-02     1     7     7     4
 2.9454990000e-04     1     7     7     5
-6.3037300000e-05     1     7     7     6
-3.8998523000e-03     1     7     7     8
 4.1703000000e-05     1     7     7     9
-4.6753952000e-03     1     7     8     1
 4.9986425000e-03     1     7     8     2
 1.1399787000e-03     1     7     8     3
-1.3807125300e-02     1     7     8     4
 5.9082000000e-06     1     7     8     5
 6.1569800000e-05     1     7     8     6
 1.2028367900e-02     1     7     8     8
-5.9300000000e-07     1     7     8     9
 9.6111000000e-05     1     7     9     1
-9.8265300000e-05     1     7     9     2
-2.5798900000e-05     1     7     9     3
-7.1804200000e-05     1     7     9     4
 1.2006127700e-02     1     7     9     5
-8.6299895000e-03     1     7     9     6
 1.7549000000e-06     1     7     9     8
 1.2074312900e-02     1     7     9     9
 4.6068049000e-03     1     8     2     1
-3.4918370000e-03     1     8     2     2
-3.3499104000e-03     1     8     2     3
-8.5565624000e-03     1     8     2     4
-1.1483800000e-05     1     8     2     5
 3.8122400000e-05     1     8     2     6
-8.6491060000e-04     1     8     2     7
-8.9820000000e-07     1     8     2     9
 4.5960110000e-02     1     8     3     1
-2.1234232400e-02     1     8     3     2
-2.6050562800e-02     1     8     3     3
-2.5594353600e-02     1     8     3     4
 6.0132100000e-05     1     8     3     5
 1.1335140000e-04     1     8     3     6
 2.2589690000e-04     1     8     3     7
 3.1570000000e-07     1     8     3     9
 5.8237719300e-02     1     8     4     1
-3.5540249700e-02     1     8     4     2
-3.5386437900e-02     1     8     4     3
 9.5106981000e-03     1     8     4     4
 2.5211800000e-05     1     8     4     5
-1.5920900000e-05     1     8     4     6
 2.1386019100e-02     1     8     4     7
-1.7838070000e-04     1     8     4     9
-1.0672480000e-04     1     8     5     1
 3.4426100000e-05     1     8     5     2
 8.1974600000e-05     1     8     5     3
 2.3842600000e-05     1     8     5     4
 6.6969448000e-03     1     8     5     5
 1.8333000000e-06     1     8     5     6
 6.6546500000e-05     1     8     5     7
 8.6285580000e-03     1     8     5     9
-2.5862470000e-04     1     8     6     1
 1.5856730000e-04     1     8     6     2
 1.5656770000e-04     1     8     6     3
-1.6087200000e-05     1     8     6     4
 1.7411000000e-06     1     8     6     5
 6.6997723000e-03     1     8     6     6
-9.1782100000e-05     1     8     6     7
-6.2023470000e-03     1     8     6     9
-4.6753952000e-03     1     8     7     1
 4.1337319000e-03     1     8     7     2
 1.3658756000e-03     1     8     7     3
 7.5788938000e-03     1     8     7     4
 7.2454700000e-05     1     8     7     5
-3.0212300000e-05     1     8     7     6
 3.8998523000e-03     1     8     7     7
-2.3479000000e-06     1     8     7     9
-1.3593185980e-01     1     8     8     1
 1.0910370360e-01     1     8     8     2
 6.9542594000e-02     1     8     8     3
-1.1991354000e-03     1     8     8     4
 1.3805550000e-04     1     8     8     5
 3.0115000000e-06     1     8     8     6
-1.2028367900e-02     1     8     8     7
 5.4562600000e-05     1     8     8     9
-2.7584200000e-05     1     8     9     1
-5.9450000000e-06     1     8     9     2
-3.1319000000e-06     1     8     9     3
-4.1423900000e-05     1     8     9     4
 7.4562987000e-03     1     8     9     5
-5.3597035000e-03     1     8     9     6
-1.7549000000e-06     1     8     9     7
 4.7130782000e-03     1     8     9     9
-7.6774800000e-05     1     9     2     1
 6.1227600000e-05     1     9     2     2
 4.4807900000e-05     1     9     2     3
-3.0118100000e-05     1     9     2     4
 7.0948874000e-03     1     9     2     5
-5.1000285000e-03     1     9     2     6
 1.4641900000e-05     1     9     2     7
 8.9820000000e-07     1     9     2     8
-6.3054580000e-04     1     9     3     1
 2.7362170000e-04     1     9     3     2
 3.6977480000e-04     1     9     3     3
-1.8976410000e-04     1     9     3     4
 2.5455581600e-02     1     9     3     5
-1.8299033100e-02     1     9     3     6
-4.6282000000e-06     1     9     3     7
-3.1570000000e-07     1     9     3     8
 3.8779800000e-04     1     9     4     1
-2.0663360000e-04     1     9     4     2
-2.5815410000e-04     1     9     4     3
-3.0295700000e-05     1     9     4     4
-2.1328211000e-03     1     9     4     5
 1.5328950000e-03     1     9     4     6
 4.1510900000e-05     1     9     4     7
 1.7838070000e-04     1     9     4     8
-5.5962997300e-02     1     9     5     1
 3.3069059100e-02     1     9     5     2
 3.4943063600e-02     1     9     5     3
-2.1898806000e-03     1     9     5     4
-1.6757590000e-04     1     9     5     5
 4.4151500000e-05     1     9     5     6
-1.5705866100e-02     1     9     5     7
-8.6285580000e-03     1     9     5     8
 4.0227083600e-02     1     9     6     1
-2.3770234100e-02     1     9     6     2
-2.5117672500e-02     1     9     6     3
 1.5737520000e-03     1     9     6     4
 4.5132900000e-05     1     9     6     5
-9.1156100000e-05     1     9     6     6
 1.1289416300e-02     1     9     6     7
 6.2023470000e-03     1     9     6     8
 9.6111000000e-05     1     9     7     1
-8.3623400000e-05     1     9     7     2
-3.0427100000e-05     1     9     7     3
-3.0293300000e-05     1     9     7     4
-3.6997384000e-03     1     9     7     5
 2.6594268000e-03     1     9     7     6
-4.1703000000e-05     1     9     7     7
 2.3479000000e-06     1     9     7     8
-2.7584200000e-05     1     9     8     1
-5.0468000000e-06     1     9     8     2
-3.4476000000e-06     1     9     8     3
 1.3695680000e-04     1     9     8     4
-1.1722593000e-03     1     9     8     5
 8.4264350000e-04     1     9     8     6
 5.9300000000e-07     1     9     8     7
-5.4562600000e-05     1     9     8     8
-1.4111336840e-01     1     9     9     1
 1.1119664220e-01     1     9     9     2
 7.1168325000e-02     1     9     9     3
 7.1531751000e-03     1     9     9     4
 6.2978700000e-05     1     9     9     5
 2.8483300000e-05     1     9     9     6
-1.2074312900e-02     1     9     9     7
-4.7130782000e-03     1     9     9     8
 6.9090092200e-02     2     1     1     2
-3.6093884800e-02     2     1     1     3
 2.9463073000e-03     2     1     1     4
 6.3342100000e-05     2     1     1     5
-1.2739300000e-05     2     1     1     6
-2.2636284000e-03     2     1     1     7
 4.6068049000e-03     2     1     1     8
-7.6774800000e-05     2     1     1     9
-2.0215168100e-02     2     1     3     2
-6.4625298800e-02     2     1     3     3
-5.5838026000e-03     2     1     3     4
-1.1874750000e-04     2     1     3     5
 2.4534300000e-05     2     1     3     6
 3.7030081700e-02     2     1     3     7
 1.7884322000e-02     2     1     3     8
-2.2881380000e-04     2     1     3     9
 9.7946176000e-03     2     1     4     2
-4.2347857000e-03     2     1     4     3
-8.4491794500e-02     2     1     4     4
 6.2235800000e-05     2     1     4     5
-1.2947500000e-05     2     1     4     6
-1.8041544700e-02     2     1     4     7
 2.6983687300e-02     2     1     4     8
 1.7651550000e-04     2     1     4     9
 2.1133830000e-04     2     1     5     2
-8.9236500000e-05     2     1     5     3
 6.1587600000e-05     2     1     5     4
-8.7779073500e-02     2     1     5     5
-3.4120000000e-07     2     1     5     6
-3.3480770000e-04     2     1     5     7
-4.5909900000e-05     2     1     5     8
-2.5974171700e-02     2     1     5     9
-4.3560800000e-05     2     1     6     2
 1.8445300000e-05     2     1     6     3
-1.2865400000e-05     2     1     6     4
-2.8100000000e-07     2     1     6     5
-8.7779553800e-02     2     1     6     6
 7.1739400000e-05     2     1     6     7
-1.2044490000e-04     2     1     6     8
 1.8670205600e-02     2     1     6     9
-2.1275935000e-03     2     1     7     2
 4.3247614500e-02     2     1     7     3
-2.4108669200e-02     2     1     7     4
-4.5103740000e-04     2     1     7     5
 9.6472300000e-05     2     1     7     6
-9.9498950500e-02     2     1     7     7
-4.9986425000e-03     2     1     7     8
 9.8265300000e-05     2     1     7     9
 3.4918370000e-03     2     1     8     2
 2.1234232400e-02     2     1     8     3
 3.5540249700e-02     2     1     8     4
-3.4426100000e-05     2     1     8     5
-1.5856730000e-04     2     1     8     6
-4.1337319000e-03     2     1     8     7
-1.0910370360e-01     2     1     8     8
 5.9450000000e-06     2     1     8     9
-6.1227600000e-05     2     1     9     2
-2.7362170000e-04     2     1     9     3
 2.0663360000e-04     2     1     9     4
-3.3069059100e-02     2     1     9     5
 2.3770234100e-02     2     1     9     6
 8.3623400000e-05     2     1     9     7
 5.0468000000e-06     2     1     9     8
-1.1119664220e-01     2     1     9     9
-6.9090092200e-02     2     2     1     1
 2.0215168100e-02     2     2     1     3
-9.7946176000e-03     2     2     1     4
-2.1133830000e-04     2     2     1     5
 4.3560800000e-05     2     2     1     6
 2.1275935000e-03     2     2     1     7
-3.4918370000e-03     2     2     1     8
 6.1227600000e-05     2     2     1     9
 2.0215168100e-02     2     2     3     1
-4.6459539200e-02     2     2     3     3
 1.1623720000e-04     2     2     3     4
 2.9460000000e-06     2     2     3     5
-3.8960000000e-07     2     2     3     6
-2.1071859600e-02     2     2     3     7
-1.7164110000e-02     2     2     3     8
 2.4250000000e-04     2     2     3     9
-9.7946176000e-03     2     2     4     1
 1.1623720000e-04     2     2     4     3
-1.5350067100e-02     2     2     4     4
 4.6991300000e-05     2     2     4     5
-9.6660000000e-06     2     2     4     6
 1.1333283700e-02     2     2     4     7
-1.6378346400e-02     2     2     4     8
-1.5462030000e-04     2     2     4     9
-2.1133830000e-04     2     2     5     1
 2.9460000000e-06     2     2     5     3
 4.6991300000e-05     2     2     5     4
-1.6764224600e-02     2     2     5     5
-1.7650000000e-07     2     2     5     6
 2.0597870000e-04     2     2     5     7
 7.3541800000e-05     2     2     5     8
 1.7422702000e-02     2     2     5     9
 4.3560800000e-05     2     2     6     1
-3.8960000000e-07     2     2     6     3
-9.6660000000e-06     2     2     6     4
-1.7650000000e-07     2     2     6     5
-1.6765435800e-02     2     2     6     6
-4.4255600000e-05     2     2     6     7
 7.1767400000e-05     2     2     6     8
-1.2523841700e-02     2     2     6     9
 2.1275935000e-03     2     2     7     1
-2.1071859600e-02     2     2     7     3
 1.1333283700e-02     2     2     7     4
 2.0597870000e-04     2     2     7     5
-4.4255600000e-05     2     2     7     6
-7.6737059000e-03     2     2     7     7
-2.9274060000e-04     2     2     7     8
 3.7192000000e-06     2     2     7     9
-3.4918370000e-03     2     2     8     1
-1.7164110000e-02     2     2     8     3
-1.6378346400e-02     2     2     8     4
 7.3541800000e-05     2     2     8     5
 7.1767400000e-05     2     2     8     6
-2.9274060000e-04     2     2     8     7
-7.4184864000e-03     2     2     8     8
 3.7470000000e-07     2     2     8     9
 6.1227600000e-05     2     2     9     1
 2.4250000000e-04     2     2     9     3
-1.5462030000e-04     2     2     9     4
 1.7422702000e-02     2     2     9     5
-1.2523841700e-02     2     2     9     6
 3.7192000000e-06     2     2     9     7
 3.7470000000e-07     2     2     9     8
-5.7361087000e-03     2     2     9     9
 3.6093884800e-02     2     3     1     1
-2.0215168100e-02     2     3     1     2
-1.3490169000e-03     2     3     1     4
-2.9511000000e-05     2     3     1     5
 6.0890000000e-06     2     3     1     6
-6.2175328000e-03     2     3     1     7
-3.3499104000e-03     2     3     1     8
 4.4807900000e-05     2     3     1     9