&FCI NORB=  9,NELEC=  2,MS2=0,
 ORBSYM=1,1,1,1,1,1,1,1,1
 ISYM=1,
&END
-7.7398486200e-02     1     1     2     2
 3.2922080500e-02     1     1     2     3
-4.8205010000e-04     1     1     2     4
-4.4625000000e-06     1     1     2     5
 3.1896000000e-06     1     1     2     6
 1.1810785000e-03     1     1     2     7
 1.6734950000e-03     1     1     2     8
-2.0719000000e-06     1     1     2     9
 3.2922080500e-02     1     1     3     2
 6.4274214100e-02     1     1     3     3
 3.5656900000e-04     1     1     3     4
 3.8062000000e-06     1     1     3     5
-2.0674000000e-06     1     1     3     6
 8.0068765900e-02     1     1     3     7
 1.4649886300e-02     1     1     3     8
-5.6190000000e-06     1     1     3     9
-4.8205010000e-04     1     1     4     2
 3.5656900000e-04     1     1     4     3
 8.5715320900e-02     1     1     4     4
-5.2309400000e-05     1     1     4     5
 3.8232000000e-05     1     1     4     6
-1.3095195900e-02     1     1     4     7
 7.1559064000e-02     1     1     4     8
 7.0891260000e-04     1     1     4     9
-4.4625000000e-06     1     1     5     2
 3.8062000000e-06     1     1     5     3
-5.2309400000e-05     1     1     5     4
 9.3363805500e-02     1     1     5     5
 4.9270000000e-07     1     1     5     6
-1.1768810000e-04     1     1     5     7
 6.4262620000e-04     1     1     5     8
-5.2770288700e-02     1     1     5     9
 3.1896000000e-06     1     1     6     2
-2.0674000000e-06     1     1     6     3
 3.8232000000e-05     1     1     6     4
 4.9270000000e-07     1     1     6     5
 9.3362115700e-02     1     1     6     6
 7.9879200000e-05     1     1     6     7
-3.9605840000e-04     1     1     6     8
 4.5076272600e-02     1     1     6     9
 1.1810785000e-03     1     1     7     2
 8.0068765900e-02     1     1     7     3
-1.3095195900e-02     1     1     7     4
-1.1768810000e-04     1     1     7     5
 7.9879200000e-05     1     1     7     6
 1.3368891600e-01     1     1     7     7
 3.2471346000e-03     1     1     7     8
-8.2663000000e-06     1     1     7     9
 1.6734950000e-03     1     1     8     2
 1.4649886300e-02     1     1     8     3
 7.1559064000e-02     1     1     8     4
 6.4262620000e-04     1     1     8     5
-3.9605840000e-04     1     1     8     6
 3.2471346000e-03     1     1     8     7
 1.2517036430e-01     1     1     8     8
 3.7862100000e-05     1     1     8     9
-2.0719000000e-06     1     1     9     2
-5.6190000000e-06     1     1     9     3
 7.0891260000e-04     1     1     9     4
-5.2770288700e-02     1     1     9     5
 4.5076272600e-02     1     1     9     6
-8.2663000000e-06     1     1     9     7
 3.7862100000e-05     1     1     9     8
 1.4484549050e-01     1     1     9     9
 7.7398486200e-02     1     2     2     1
-1.9286103100e-02     1     2     2     3
 2.7788348000e-03     1     2     2     4
 2.5665200000e-05     1     2     2     5
-1.8984900000e-05     1     2     2     6
 6.2702480000e-04     1     2     2     7
-1.2624298000e-03     1     2     2     8
 2.3269000000e-06     1     2     2     9
-3.2922080500e-02     1     2     3     1
-6.3706120600e-02     1     2     3     3
-1.5356543000e-03     1     2     3     4
-1.4035200000e-05     1     2     3     5
 1.0009200000e-05     1     2     3     6
-4.5559813700e-02     1     2     3     7
-5.8967898000e-03     1     2     3     8
 4.1700000000e-07     1     2     3     9
 4.8205010000e-04     1     2     4     1
-1.8642393000e-03     1     2     4     3
-8.4360881800e-02     1     2     4     4
 2.9188900000e-05     1     2     4     5
-2.1305900000e-05     1     2     4     6
 7.4144002000e-03     1     2     4     7
-4.0880784300e-02     1     2     4     8
-3.9437350000e-04     1     2     4     9
 4.4625000000e-06     1     2     5     1
-1.7087900000e-05     1     2     5     3
 2.8897300000e-05     1     2     5     4
-8.7237862500e-02     1     2     5     5
-2.9930000000e-07     1     2     5     6
 6.6468900000e-05     1     2     5     7
-3.6836250000e-04     1     2     5     8
 2.9514736600e-02     1     2     5     9
-3.1896000000e-06     1     2     6     1
 1.2338000000e-05     1     2     6     3
-2.1340300000e-05     1     2     6     4
-2.3200000000e-07     1     2     6     5
-8.7237235500e-02     1     2     6     6
-4.5152900000e-05     1     2     6     7
 2.2792690000e-04     1     2     6     8
-2.5211501700e-02     1     2     6     9
-1.1810785000e-03     1     2     7     1
-3.9175711500e-02     1     2     7     3
 5.5807620000e-03     1     2     7     4
 5.0004400000e-05     1     2     7     5
-3.3657600000e-05     1     2     7     6
-1.0521425580e-01     1     2     7     7
-2.9963567000e-03     1     2     7     8
 6.0579000000e-06     1     2     7     9
-1.6734950000e-03     1     2     8     1
-4.9411837000e-03     1     2     8     3
-3.1236220600e-02     1     2     8     4
-2.8167500000e-04     1     2     8     5
 1.7233170000e-04     1     2     8     6
-3.2569615000e-03     1     2     8     7
-1.0167289020e-01     1     2     8     8
-2.3604000000e-05     1     2     8     9
 2.0719000000e-06     1     2     9     1
 9.5700000000e-08     1     2     9     3
-3.1966570000e-04     1     2     9     4
 2.3761858100e-02     1     2     9     5
-2.0297273700e-02     1     2     9     6
 6.3807000000e-06     1     2     9     7
-2.3468300000e-05     1     2     9     8
-1.1221911830e-01     1     2     9     9
-3.2922080500e-02     1     3     2     1
 1.9286103100e-02     1     3     2     2
 3.2858500000e-04     1     3     2     4
 3.0527000000e-06     1     3     2     5
-2.3288000000e-06     1     3     2     6
-6.3841022000e-03     1     3     2     7
-9.5560610000e-04     1     3     2     8
 3.2130000000e-07     1     3     2     9
-6.4274214100e-02     1     3     3     1
 6.3706120600e-02     1     3     3     2
 1.3579646000e-03     1     3     3     4
 1.2190000000e-05     1     3     3     5
-9.5302000000e-06     1     3     3     6
-4.1880588800e-02     1     3     3     7
-8.5356360000e-03     1     3     3     8
 4.2824000000e-06     1     3     3     9
-3.5656900000e-04     1     3     4     1
 1.8642393000e-03     1     3     4     2
-6.4437436800e-02     1     3     4     4
 8.8353000000e-06     1     3     4     5
-6.4579000000e-06     1     3     4     6
 7.2488875000e-03     1     3     4     7
-4.2351196300e-02     1     3     4     8
-4.6193860000e-04     1     3     4     9
-3.8062000000e-06     1     3     5     1
 1.7087900000e-05     1     3     5     2
 9.1522000000e-06     1     3     5     4
-6.6587564300e-02     1     3     5     5
-1.1030000000e-07     1     3     5     6
 6.4586600000e-05     1     3     5     7
-3.7735490000e-04     1     3     5     8
 3.3823097100e-02     1     3     5     9
 2.0674000000e-06     1     3     6     1
-1.2338000000e-05     1     3     6     2
-6.5426000000e-06     1     3     6     4
-1.1580000000e-07     1     3     6     5
-6.6587046000e-02     1     3     6     6
-4.3258300000e-05     1     3     6     7
 2.2955770000e-04     1     3     6     8
-2.8890928000e-02     1     3     6     9
-8.0068765900e-02     1     3     7     1
 3.9175711500e-02     1     3     7     2
 2.6168333000e-03     1     3     7     4
 2.3521000000e-05     1     3     7     5
-1.5945300000e-05     1     3     7     6
-7.0356996500e-02     1     3     7     7
-9.4328080000e-04     1     3     7     8
 2.8360000000e-06     1     3     7     9
-1.4649886300e-02     1     3     8     1
 4.9411837000e-03     1     3     8     2
-1.3193056800e-02     1     3     8     4
-1.1770780000e-04     1     3     8     5
 7.2655300000e-05     1     3     8     6
-9.5454480000e-04     1     3     8     7
-6.9270055100e-02     1     3     8     8
-1.2034200000e-05     1     3     8     9
 5.6190000000e-06     1     3     9     1
-9.5700000000e-08     1     3     9     2
-1.2758420000e-04     1     3     9     4
 9.4883645000e-03     1     3     9     5
-8.1045393000e-03     1     3     9     6
 2.7638000000e-06     1     3     9     7
-1.1870600000e-05     1     3     9     8
-7.7001297400e-02     1     3     9     9
 4.8205010000e-04     1     4     2     1
-2.7788348000e-03     1     4     2     2
-3.2858500000e-04     1     4     2     3
 2.9160000000e-07     1     4     2     5
 3.4400000000e-08     1     4     2     6
 1.8336382000e-03     1     4     2     7
-9.6445637000e-03     1     4     2     8
-7.4707800000e-05     1     4     2     9
-3.5656900000e-04     1     4     3     1
 1.5356543000e-03     1     4     3     2
-1.3579646000e-03     1     4     3     3
-3.1690000000e-07     1     4     3     5
 8.4700000000e-08     1     4     3     6
 4.6320542000e-03     1     4     3     7
-2.9158139500e-02     1     4     3     8
-3.3435440000e-04     1     4     3     9
-8.5715320900e-02     1     4     4     1
 8.4360881800e-02     1     4     4     2
 6.4437436800e-02     1     4     4     3
 1.9440500000e-05     1     4     4     5
-1.4494700000e-05     1     4     4     6
 1.7769398200e-02     1     4     4     7
 2.4984541000e-03     1     4     4     8
 1.1947000000e-05     1     4     4     9
 5.2309400000e-05     1     4     5     1
-2.8897300000e-05     1     4     5     2
-9.1522000000e-06     1     4     5     3
-1.9919811000e-03     1     4     5     5
-4.0000000000e-09     1     4     5     6
-1.1811000000e-05     1     4     5     7
 1.5444900000e-05     1     4     5     8
-5.0129310000e-04     1     4     5     9
-3.8232000000e-05     1     4     6     1
 2.1340300000e-05     1     4     6     2
 6.5426000000e-06     1     4     6     3
-7.0000000000e-10     1     4     6     5
-1.9920055000e-03     1     4     6     6
 8.6671000000e-06     1     4     6     7
-4.2494000000e-06     1     4     6     8
 4.2857200000e-04     1     4     6     9
 1.3095195900e-02     1     4     7     1
-5.5807620000e-03     1     4     7     2
-2.6168333000e-03     1     4     7     3
 2.3090000000e-07     1     4     7     5
-1.7160000000e-07     1     4     7     6
-5.3620104000e-03     1     4     7     7
-2.7103333000e-03     1     4     7     8
-6.6077000000e-05     1     4     7     9
-7.1559064000e-02     1     4     8     1
 3.1236220600e-02     1     4     8     2
 1.3193056800e-02     1     4     8     3
 2.7770000000e-07     1     4     8     5
-5.4000000000e-08     1     4     8     6
 1.9272411600e-02     1     4     8     7
 6.8910170000e-04     1     4     8     8
-5.1553000000e-06     1     4     8     9
-7.0891260000e-04     1     4     9     1
 3.1966570000e-04     1     4     9     2
 1.2758420000e-04     1     4     9     3
-5.5712000000e-06     1     4     9     5
 4.7917000000e-06     1     4     9     6
 1.6941330000e-04     1     4     9     7
 3.0860500000e-05     1     4     9     8
-2.4341837000e-03     1     4     9     9
 4.4625000000e-06     1     5     2     1
-2.5665200000e-05     1     5     2     2
-3.0527000000e-06     1     5     2     3
-2.9160000000e-07     1     5     2     4
-6.7300000000e-08     1     5     2     6
 1.6464500000e-05     1     5     2     7
-8.6687500000e-05     1     5     2     8
 5.7528785000e-03     1     5     2     9
-3.8062000000e-06     1     5     3     1
 1.4035200000e-05     1     5     3     2
-1.2190000000e-05     1     5     3     3
 3.1690000000e-07     1     5     3     4
 5.5000000000e-09     1     5     3     6
 4.1065600000e-05     1     5     3     7
-2.5964710000e-04     1     5     3     8
 2.4334732600e-02     1     5     3     9
 5.2309400000e-05     1     5     4     1
-2.9188900000e-05     1     5     4     2
-8.8353000000e-06     1     5     4     3
-1.9440500000e-05     1     5     4     4
-3.3000000000e-09     1     5     4     6
-1.2041900000e-05     1     5     4     7
 1.5167200000e-05     1     5     4     8
-4.9572190000e-04     1     5     4     9
-9.3363805500e-02     1     5     5     1
 8.7237862500e-02     1     5     5     2
 6.6587564300e-02     1     5     5     3
 1.9919811000e-03     1     5     5     4
-1.3711200000e-05     1     5     5     6
 1.9339804500e-02     1     5     5     7
 2.2221338000e-03     1     5     5     8
-6.3523000000e-06     1     5     5     9
-4.9270000000e-07     1     5     6     1
 2.3200000000e-07     1     5     6     2
 1.1580000000e-07     1     5     6     3
 7.0000000000e-10     1     5     6     4
-1.8330700000e-05     1     5     6     6
 1.0290000000e-07     1     5     6     7
 4.0388000000e-06     1     5     6     8
 4.4767000000e-06     1     5     6     9
 1.1768810000e-04     1     5     7     1
-5.0004400000e-05     1     5     7     2
-2.3521000000e-05     1     5     7     3
-2.3090000000e-07     1     5     7     4
 5.9000000000e-09     1     5     7     6
-4.8417300000e-05     1     5     7     7
-2.3916200000e-05     1     5     7     8
 4.7174716000e-03     1     5     7     9
-6.4262620000e-04     1     5     8     1
 2.8167500000e-04     1     5     8     2
 1.1770780000e-04     1     5     8     3
-2.7770000000e-07     1     5     8     4
 3.3000000000e-09     1     5     8     6
 1.7172730000e-04     1     5     8     7
 3.5069000000e-06     1     5     8     8
 5.1470900000e-04     1     5     8     9
 5.2770288700e-02     1     5     9     1
-2.3761858100e-02     1     5     9     2
-9.4883645000e-03     1     5     9     3
 5.5712000000e-06     1     5     9     4
 4.4100000000e-08     1     5     9     6
-1.2498004000e-02     1     5     9     7
-2.1877814000e-03     1     5     9     8
-2.0561400000e-05     1     5     9     9
-3.1896000000e-06     1     6     2     1
 1.8984900000e-05     1     6     2     2
 2.3288000000e-06     1     6     2     3
-3.4400000000e-08     1     6     2     4
 6.7300000000e-08     1     6     2     5
-1.1495300000e-05     1     6     2     7
 5.5595200000e-05     1     6     2     8
-4.9142280000e-03     1     6     2     9
 2.0674000000e-06     1     6     3     1
-1.0009200000e-05     1     6     3     2
 9.5302000000e-06     1     6     3     3
-8.4700000000e-08     1     6     3     4
-5.5000000000e-09     1     6     3     5
-2.7313000000e-05     1     6     3     7
 1.5690240000e-04     1     6     3     8
-2.0786388700e-02     1     6     3     9
-3.8232000000e-05     1     6     4     1
 2.1305900000e-05     1     6     4     2
 6.4579000000e-06     1     6     4     3
 1.4494700000e-05     1     6     4     4
 3.3000000000e-09     1     6     4     5
 8.8387000000e-06     1     6     4     7
-4.1954000000e-06     1     6     4     8
 4.2378030000e-04     1     6     4     9
-4.9270000000e-07     1     6     5     1
 2.9930000000e-07     1     6     5     2
 1.1030000000e-07     1     6     5     3
 4.0000000000e-09     1     6     5     4
 1.3711200000e-05     1     6     5     5
 9.7000000000e-08     1     6     5     7
 4.0355000000e-06     1     6     5     8
 4.4326000000e-06     1     6     5     9
-9.3362115700e-02     1     6     6     1
 8.7237235500e-02     1     6     6     2
 6.6587046000e-02     1     6     6     3
 1.9920055000e-03     1     6     6     4
 1.8330700000e-05     1     6     6     5
 1.9339256900e-02     1     6     6     7
 2.2268606000e-03     1     6     6     8
-4.8056000000e-06     1     6     6     9
-7.9879200000e-05     1     6     7     1
 3.3657600000e-05     1     6     7     2
 1.5945300000e-05     1     6     7     3
 1.7160000000e-07     1     6     7     4
-5.9000000000e-09     1     6     7     5
 3.4585800000e-05     1     6     7     7
 1.2898500000e-05     1     6     7     8
-4.0296610000e-03     1     6     7     9
 3.9605840000e-04     1     6     8     1
-1.7233170000e-04     1     6     8     2
-7.2655300000e-05     1     6     8     3
 5.4000000000e-08     1     6     8     4
-3.3000000000e-09     1     6     8     5
-1.0643780000e-04     1     6     8     7
-2.2150000000e-07     1     6     8     8
-4.4025300000e-04     1     6     8     9
-4.5076272600e-02     1     6     9     1
 2.0297273700e-02     1     6     9     2
 8.1045393000e-03     1     6     9     3
-4.7917000000e-06     1     6     9     4
-4.4100000000e-08     1     6     9     5
 1.0675664500e-02     1     6     9     7
 1.8688781000e-03     1     6     9     8
 1.5462700000e-05     1     6     9     9
-1.1810785000e-03     1     7     2     1
-6.2702480000e-04     1     7     2     2
 6.3841022000e-03     1     7     2     3
-1.8336382000e-03     1     7     2     4
-1.6464500000e-05     1     7     2     5
 1.1495300000e-05     1     7     2     6
 2.6060480000e-04     1     7     2     8
-3.2280000000e-07     1     7     2     9
-8.0068765900e-02     1     7     3     1
 4.5559813700e-02     1     7     3     2
 4.1880588800e-02     1     7     3     3
-4.6320542000e-03     1     7     3     4
-4.1065600000e-05     1     7     3     5
 2.7313000000e-05     1     7     3     6
 1.1264000000e-05     1     7     3     8
 7.2200000000e-08     1     7     3     9
 1.3095195900e-02     1     7     4     1
-7.4144002000e-03     1     7     4     2
-7.2488875000e-03     1     7     4     3
-1.7769398200e-02     1     7     4     4
 1.2041900000e-05     1     7     4     5
-8.8387000000e-06     1     7     4     6
-2.1982744900e-02     1     7     4     8
-2.3549030000e-04     1     7     4     9
 1.1768810000e-04     1     7     5     1
-6.6468900000e-05     1     7     5     2
-6.4586600000e-05     1     7     5     3
 1.1811000000e-05     1     7     5     4
-1.9339804500e-02     1     7     5     5
-9.7000000000e-08     1     7     5     6
-1.9564350000e-04     1     7     5     8
 1.7215475600e-02     1     7     5     9
-7.9879200000e-05     1     7     6     1
 4.5152900000e-05     1     7     6     2
 4.3258300000e-05     1     7     6     3
-8.6671000000e-06     1     7     6     4
-1.0290000000e-07     1     7     6     5
-1.9339256900e-02     1     7     6     6
 1.1933630000e-04     1     7     6     8
-1.4705325500e-02     1     7     6     9
-1.3368891600e-01     1     7     7     1
 1.0521425580e-01     1     7     7     2
 7.0356996500e-02     1     7     7     3
 5.3620104000e-03     1     7     7     4
 4.8417300000e-05     1     7     7     5
-3.4585800000e-05     1     7     7     6
 1.2288767000e-03     1     7     7     8
 2.0376000000e-06     1     7     7     9
-3.2471346000e-03     1     7     8     1
 3.2569615000e-03     1     7     8     2
 9.5454480000e-04     1     7     8     3
-1.9272411600e-02     1     7     8     4
-1.7172730000e-04     1     7     8     5
 1.0643780000e-04     1     7     8     6
-1.1998234000e-02     1     7     8     8
-7.2335000000e-06     1     7     8     9
 8.2663000000e-06     1     7     9     1
-6.3807000000e-06     1     7     9     2
-2.7638000000e-06     1     7     9     3
-1.6941330000e-04     1     7     9     4
 1.2498004000e-02     1     7     9     5
-1.0675664500e-02     1     7     9     6
-6.4084000000e-06     1     7     9     8
-1.3053165600e-02     1     7     9     9
-1.6734950000e-03     1     8     2     1
 1.2624298000e-03     1     8     2     2
 9.5560610000e-04     1     8     2     3
 9.6445637000e-03     1     8     2     4
 8.6687500000e-05     1     8     2     5
-5.5595200000e-05     1     8     2     6
-2.6060480000e-04     1     8     2     7
-1.3570000000e-07     1     8     2     9
-1.4649886300e-02     1     8     3     1
 5.8967898000e-03     1     8     3     2
 8.5356360000e-03     1     8     3     3
 2.9158139500e-02     1     8     3     4
 2.5964710000e-04     1     8     3     5
-1.5690240000e-04     1     8     3     6
-1.1264000000e-05     1     8     3     7
-1.6360000000e-07     1     8     3     9
-7.1559064000e-02     1     8     4     1
 4.0880784300e-02     1     8     4     2
 4.2351196300e-02     1     8     4     3
-2.4984541000e-03     1     8     4     4
-1.5167200000e-05     1     8     4     5
 4.1954000000e-06     1     8     4     6
 2.1982744900e-02     1     8     4     7
-3.6015800000e-05     1     8     4     9
-6.4262620000e-04     1     8     5     1
 3.6836250000e-04     1     8     5     2
 3.7735490000e-04     1     8     5     3
-1.5444900000e-05     1     8     5     4
-2.2221338000e-03     1     8     5     5
-4.0355000000e-06     1     8     5     6
 1.9564350000e-04     1     8     5     7
 2.7024904000e-03     1     8     5     9
 3.9605840000e-04     1     8     6     1
-2.2792690000e-04     1     8     6     2
-2.2955770000e-04     1     8     6     3
 4.2494000000e-06     1     8     6     4
-4.0388000000e-06     1     8     6     5
-2.2268606000e-03     1     8     6     6
-1.1933630000e-04     1     8     6     7
-2.3091311000e-03     1     8     6     9
-3.2471346000e-03     1     8     7     1
 2.9963567000e-03     1     8     7     2
 9.4328080000e-04     1     8     7     3
 2.7103333000e-03     1     8     7     4
 2.3916200000e-05     1     8     7     5
-1.2898500000e-05     1     8     7     6
-1.2288767000e-03     1     8     7     7
-8.2510000000e-07     1     8     7     9
-1.2517036430e-01     1     8     8     1
 1.0167289020e-01     1     8     8     2
 6.9270055100e-02     1     8     8     3
-6.8910170000e-04     1     8     8     4
-3.5069000000e-06     1     8     8     5
 2.2150000000e-07     1     8     8     6
 1.1998234000e-02     1     8     8     7
-1.3950000000e-07     1     8     8     9
-3.7862100000e-05     1     8     9     1
 2.3468300000e-05     1     8     9     2
 1.1870600000e-05     1     8     9     3
-3.0860500000e-05     1     8     9     4
 2.1877814000e-03     1     8     9     5
-1.8688781000e-03     1     8     9     6
 6.4084000000e-06     1     8     9     7
-1.5746127000e-03     1     8     9     9
 2.0719000000e-06     1     9     2     1
-2.3269000000e-06     1     9     2     2
-3.2130000000e-07     1     9     2     3
 7.4707800000e-05     1     9     2     4
-5.7528785000e-03     1     9     2     5
 4.9142280000e-03     1     9     2     6
 3.2280000000e-07     1     9     2     7
 1.3570000000e-07     1     9     2     8
 5.6190000000e-06     1     9     3     1
-4.1700000000e-07     1     9     3     2
-4.2824000000e-06     1     9     3     3
 3.3435440000e-04     1     9     3     4
-2.4334732600e-02     1     9     3     5
 2.0786388700e-02     1     9     3     6
-7.2200000000e-08     1     9     3     7
 1.6360000000e-07     1     9     3     8
-7.0891260000e-04     1     9     4     1
 3.9437350000e-04     1     9     4     2
 4.6193860000e-04     1     9     4     3
-1.1947000000e-05     1     9     4     4
 4.9572190000e-04     1     9     4     5
-4.2378030000e-04     1     9     4     6
 2.3549030000e-04     1     9     4     7
 3.6015800000e-05     1     9     4     8
 5.2770288700e-02     1     9     5     1
-2.9514736600e-02     1     9     5     2
-3.3823097100e-02     1     9     5     3
 5.0129310000e-04     1     9     5     4
 6.3523000000e-06     1     9     5     5
-4.4326000000e-06     1     9     5     6
-1.7215475600e-02     1     9     5     7
-2.7024904000e-03     1     9     5     8
-4.5076272600e-02     1     9     6     1
 2.5211501700e-02     1     9     6     2
 2.8890928000e-02     1     9     6     3
-4.2857200000e-04     1     9     6     4
-4.4767000000e-06     1     9     6     5
 4.8056000000e-06     1     9     6     6
 1.4705325500e-02     1     9     6     7
 2.3091311000e-03     1     9     6     8
 8.2663000000e-06     1     9     7     1
-6.0579000000e-06     1     9     7     2
-2.8360000000e-06     1     9     7     3
 6.6077000000e-05     1     9     7     4
-4.7174716000e-03     1     9     7     5
 4.0296610000e-03     1     9     7     6
-2.0376000000e-06     1     9     7     7
 8.2510000000e-07     1     9     7     8
-3.7862100000e-05     1     9     8     1
 2.3604000000e-05     1     9     8     2
 1.2034200000e-05     1     9     8     3
 5.1553000000e-06     1     9     8     4
-5.1470900000e-04     1     9     8     5
 4.4025300000e-04     1     9     8     6
 7.2335000000e-06     1     9     8     7
 1.3950000000e-07     1     9     8     8
-1.4484549050e-01     1     9     9     1
 1.1221911830e-01     1     9     9     2
 7.7001297400e-02     1     9     9     3
 2.4341837000e-03     1     9     9     4
 2.0561400000e-05     1     9     9     5
-1.5462700000e-05     1     9     9     6
 1.3053165600e-02     1     9     9     7
 1.5746127000e-03     1     9     9     8
 7.7398486200e-02     2     1     1     2
-3.2922080500e-02     2     1     1     3
 4.8205010000e-04     2     1     1     4
 4.4625000000e-06     2     1     1     5
-3.1896000000e-06     2     1     1     6
-1.1810785000e-03     2     1     1     7
-1.6734950000e-03     2     1     1     8
 2.0719000000e-06     2     1     1     9
-1.9286103100e-02     2     1     3     2
-6.3706120600e-02     2     1     3     3
-1.8642393000e-03     2     1     3     4
-1.7087900000e-05     2     1     3     5
 1.2338000000e-05     2     1     3     6
-3.9175711500e-02     2     1     3     7
-4.9411837000e-03     2     1     3     8
 9.5700000000e-08     2     1     3     9
 2.7788348000e-03     2     1     4     2
-1.5356543000e-03     2     1     4     3
-8.4360881800e-02     2     1     4     4
 2.8897300000e-05     2     1     4     5
-2.1340300000e-05     2     1     4     6
 5.5807620000e-03     2     1     4     7
-3.1236220600e-02     2     1     4     8
-3.1966570000e-04     2     1     4     9
 2.5665200000e-05     2     1     5     2
-1.4035200000e-05     2     1     5     3
 2.9188900000e-05     2     1     5     4
-8.7237862500e-02     2     1     5     5
-2.3200000000e-07     2     1     5     6
 5.0004400000e-05     2     1     5     7
-2.8167500000e-04     2     1     5     8
 2.3761858100e-02     2     1     5     9
-1.8984900000e-05     2     1     6     2
 1.0009200000e-05     2     1     6     3
-2.1305900000e-05     2     1     6     4
-2.9930000000e-07     2     1     6     5
-8.7237235500e-02     2     1     6     6
-3.3657600000e-05     2     1     6     7
 1.7233170000e-04     2     1     6     8
-2.0297273700e-02     2     1     6     9
 6.2702480000e-04     2     1     7     2
-4.5559813700e-02     2     1     7     3
 7.4144002000e-03     2     1     7     4
 6.6468900000e-05     2     1     7     5
-4.5152900000e-05     2     1     7     6
-1.0521425580e-01     2     1     7     7
-3.2569615000e-03     2     1     7     8
 6.3807000000e-06     2     1     7     9
-1.2624298000e-03     2     1     8     2
-5.8967898000e-03     2     1     8     3
-4.0880784300e-02     2     1     8     4
-3.6836250000e-04     2     1     8     5
 2.2792690000e-04     2     1     8     6
-2.9963567000e-03     2     1     8     7
-1.0167289020e-01     2     1     8     8
-2.3468300000e-05     2     1     8     9
 2.3269000000e-06     2     1     9     2
 4.1700000000e-07     2     1     9     3
-3.9437350000e-04     2     1     9     4
 2.9514736600e-02     2     1     9     5
-2.5211501700e-02     2     1     9     6
 6.0579000000e-06     2     1     9     7
-2.3604000000e-05     2     1     9     8
-1.1221911830e-01     2     1     9     9
-7.7398486200e-02     2     2     1     1
 1.9286103100e-02     2     2     1     3
-2.7788348000e-03     2     2     1     4
-2.5665200000e-05     2     2     1     5
 1.8984900000e-05     2     2     1     6
-6.2702480000e-04     2     2     1     7
 1.2624298000e-03     2     2     1     8
-2.3269000000e-06     2     2     1     9
 1.9286103100e-02     2     2     3     1
-5.3563680200e-02     2     2     3     3
 1.2132910000e-04     2     2     3     4
 1.3323000000e-06     2     2     3     5
-6.7200000000e-07     2     2     3     6
 2.4083916100e-02     2     2     3     7
 4.8574024000e-03     2     2     3     8
-2.1459000000e-06     2     2     3     9
-2.7788348000e-03     2     2     4     1
 1.2132910000e-04     2     2     4     3
-2.5535013800e-02     2     2     4     4
 7.4475000000e-06     2     2     4     5
-5.6072000000e-06     2     2     4     6
-3.4447659000e-03     2     2     4     7
 1.8953873800e-02     2     2     4     8
 2.0891030000e-04     2     2     4     9
-2.5665200000e-05     2     2     5     1
 1.3323000000e-06     2     2     5     3
 7.4475000000e-06     2     2     5     4
-2.5696086000e-02     2     2     5     5
 1.5700000000e-08     2     2     5     6
-3.0792000000e-05     2     2     5     7
 1.6838720000e-04     2     2     5     8
-1.5234707300e-02     2     2     5     9
 1.8984900000e-05     2     2     6     1
-6.7200000000e-07     2     2     6     3
-5.6072000000e-06     2     2     6     4
 1.5700000000e-08     2     2     6     5
-2.5696365000e-02     2     2     6     6
 2.0667600000e-05     2     2     6     7
-1.0202560000e-04     2     2     6     8
 1.3013100700e-02     2     2     6     9
-6.2702480000e-04     2     2     7     1
 2.4083916100e-02     2     2     7     3
-3.4447659000e-03     2     2     7     4
-3.0792000000e-05     2     2     7     5
 2.0667600000e-05     2     2     7     6
-1.7326812800e-02     2     2     7     7
 2.4887620000e-04     2     2     7     8
-1.2957000000e-06     2     2     7     9
 1.2624298000e-03     2     2     8     1
 4.8574024000e-03     2     2     8     3
 1.8953873800e-02     2     2     8     4
 1.6838720000e-04     2     2     8     5
-1.0202560000e-04     2     2     8     6
 2.4887620000e-04     2     2     8     7
-1.9049551900e-02     2     2     8     8
 7.6388000000e-06     2     2     8     9
-2.3269000000e-06     2     2     9     1
-2.1459000000e-06     2     2     9     3
 2.0891030000e-04     2     2     9     4
-1.5234707300e-02     2     2     9     5
 1.3013100700e-02     2     2     9     6
-1.2957000000e-06     2     2     9     7
 7.6388000000e-06     2     2     9     8
-1.4329828700e-02     2     2     9     9
 3.2922080500e-02     2     3     1     1
-1.9286103100e-02     2     3     1     2
-3.2858500000e-04     2     3     1     4
-3.0527000000e-06     2     3     1     5
 2.3288000000e-06     2     3     1     6
 6.3841022000e-03     2     3     1     7
 9.5560610000e-04     2     3     1     8
-3.2130000000e-07     2     3     1     9