&FCI NORB=  9,NELEC=  2,MS2=0,
 ORBSYM=1,1,1,1,1,1,1,1,1
 ISYM=1,
&END
 1.2309928520e-01     1     1     2     2
 2.3733000000e-06     1     1     2     3
-2.2331700000e-05     1     1     2     4
 1.1225531100e-02     1     1     2     5
-9.4362746200e-02     1     1     2     6
-1.5006240000e-04     1     1     2     7
 1.4567600000e-04     1     1     2     8
 1.3018380300e-02     1     1     2     9
 2.3733000000e-06     1     1     3     2
 1.5141214670e-01     1     1     3     3
-4.5800000000e-08     1     1     3     4
 5.4390000000e-06     1     1     3     5
 8.8440000000e-06     1     1     3     6
 3.9945409100e-02     1     1     3     7
 5.8348384800e-02     1     1     3     8
-9.3093500000e-05     1     1     3     9
-2.2331700000e-05     1     1     4     2
-4.5800000000e-08     1     1     4     3
 1.5136726820e-01     1     1     4     4
-2.5483100000e-05     1     1     4     5
 1.6022170000e-04     1     1     4     6
-5.8390342200e-02     1     1     4     7
 3.9964473400e-02     1     1     4     8
 1.2881930000e-04     1     1     4     9
 1.1225531100e-02     1     1     5     2
 5.4390000000e-06     1     1     5     3
-2.5483100000e-05     1     1     5     4
 1.6745735190e-01     1     1     5     5
-5.9972309000e-03     1     1     5     6
-1.6924760000e-04     1     1     5     7
-3.1910700000e-05     1     1     5     8
-7.7515419200e-02     1     1     5     9
-9.4362746200e-02     1     1     6     2
 8.8440000000e-06     1     1     6     3
 1.6022170000e-04     1     1     6     4
-5.9972309000e-03     1     1     6     5
 2.1474512060e-01     1     1     6     6
 1.0491500000e-05     1     1     6     7
-1.3095000000e-05     1     1     6     8
-3.9700274000e-03     1     1     6     9
-1.5006240000e-04     1     1     7     2
 3.9945409100e-02     1     1     7     3
-5.8390342200e-02     1     1     7     4
-1.6924760000e-04     1     1     7     5
 1.0491500000e-05     1     1     7     6
 2.1751405510e-01     1     1     7     7
-5.7577000000e-06     1     1     7     8
-1.4063200000e-05     1     1     7     9
 1.4567600000e-04     1     1     8     2
 5.8348384800e-02     1     1     8     3
 3.9964473400e-02     1     1     8     4
-3.1910700000e-05     1     1     8     5
-1.3095000000e-05     1     1     8     6
-5.7577000000e-06     1     1     8     7
 2.1751858680e-01     1     1     8     8
 1.6062000000e-06     1     1     8     9
 1.3018380300e-02     1     1     9     2
-9.3093500000e-05     1     1     9     3
 1.2881930000e-04     1     1     9     4
-7.7515419200e-02     1     1     9     5
-3.9700274000e-03     1     1     9     6
-1.4063200000e-05     1     1     9     7
 1.6062000000e-06     1     1     9     8
 2.4576178200e-01     1     1     9     9
-1.2309928520e-01     1     2     2     1
 8.7273000000e-06     1     2     2     3
-5.7656100000e-05     1     2     2     4
 2.8266821400e-02     1     2     2     5
-5.8825275800e-02     1     2     2     6
-9.6996400000e-05     1     2     2     7
 7.6081400000e-05     1     2     2     8
-4.7704369000e-03     1     2     2     9
-2.3733000000e-06     1     2     3     1
 9.2566256900e-02     1     2     3     3
-9.7000000000e-09     1     2     3     4
 1.7867000000e-06     1     2     3     5
 9.5389000000e-06     1     2     3     6
 3.0567102500e-02     1     2     3     7
 4.4649047200e-02     1     2     3     8
-7.6345800000e-05     1     2     3     9
 2.2331700000e-05     1     2     4     1
-2.8000000000e-08     1     2     4     3
 9.2548571500e-02     1     2     4     4
-4.7236000000e-06     1     2     4     5
 1.0019930000e-04     1     2     4     6
-4.4666267400e-02     1     2     4     7
 3.0576024700e-02     1     2     4     8
 8.9778600000e-05     1     2     4     9
-1.1225531100e-02     1     2     5     1
 1.1817000000e-06     1     2     5     3
-5.6424000000e-06     1     2     5     4
 9.6503851200e-02     1     2     5     5
 6.2390860000e-03     1     2     5     6
-1.0609330000e-04     1     2     5     7
-2.6458600000e-05     1     2     5     8
-5.5842386000e-02     1     2     5     9
 9.4362746200e-02     1     2     6     1
 2.0139000000e-06     1     2     6     3
 2.9372500000e-05     1     2     6     4
 1.2023020000e-03     1     2     6     5
 1.0435238040e-01     1     2     6     6
 1.0426400000e-05     1     2     6     7
-7.3721000000e-06     1     2     6     8
 3.3000047000e-03     1     2     6     9
 1.5006240000e-04     1     2     7     1
 8.4363558000e-03     1     2     7     3
-1.2335468000e-02     1     2     7     4
-3.0103500000e-05     1     2     7     5
 9.6573000000e-06     1     2     7     6
 1.0421985090e-01     1     2     7     7
-5.5554000000e-06     1     2     7     8
 2.1322000000e-06     1     2     7     9
-1.4567600000e-04     1     2     8     1
 1.2325240400e-02     1     2     8     3
 8.4424855000e-03     1     2     8     4
-7.5693000000e-06     1     2     8     5
-1.4124800000e-05     1     2     8     6
-3.6309000000e-06     1     2     8     7
 1.0422090470e-01     1     2     8     8
-1.6581000000e-06     1     2     8     9
-1.3018380300e-02     1     2     9     1
-2.0424800000e-05     1     2     9     3
 2.5056800000e-05     1     2     9     4
-1.5552786100e-02     1     2     9     5
-3.0618675000e-03     1     2     9     6
-7.9913000000e-06     1     2     9     7
 7.0120000000e-06     1     2     9     8
 1.2452907300e-01     1     2     9     9
-2.3733000000e-06     1     3     2     1
-8.7273000000e-06     1     3     2     2
 1.8300000000e-08     1     3     2     4
 6.0500000000e-07     1     3     2     5
 7.5250000000e-06     1     3     2     6
 2.2130746700e-02     1     3     2     7
 3.2323806800e-02     1     3     2     8
-5.5921000000e-05     1     3     2     9
-1.5141214670e-01     1     3     3     1
-9.2566256900e-02     1     3     3     2
-5.5149000000e-05     1     3     3     4
 2.7170710600e-02     1     3     3     5
 1.6015001300e-02     1     3     3     6
 3.3573600000e-05     1     3     3     7
-2.0466900000e-05     1     3     3     8
 3.3989040000e-04     1     3     3     9
 4.5800000000e-08     1     3     4     1
 2.8000000000e-08     1     3     4     2
-9.2030000000e-06     1     3     4     4
 1.1000000000e-08     1     3     4     5
-7.6000000000e-09     1     3     4     6
-1.8017700000e-05     1     3     4     7
-1.4977600000e-05     1     3     4     8
-1.0485200000e-05     1     3     4     9
-5.4390000000e-06     1     3     5     1
-1.1817000000e-06     1     3     5     2
 8.8000000000e-09     1     3     5     4
-9.7462000000e-06     1     3     5     5
 6.5254000000e-06     1     3     5     6
 6.1427231000e-03     1     3     5     7
 8.9687733000e-03     1     3     5     8
-2.0806500000e-05     1     3     5     9
-8.8440000000e-06     1     3     6     1
-2.0139000000e-06     1     3     6     2
 1.4900000000e-08     1     3     6     4
 3.1260000000e-07     1     3     6     5
-6.8823000000e-06     1     3     6     6
-3.0750009000e-03     1     3     6     7
-4.4917117000e-03     1     3     6     8
 2.2834200000e-05     1     3     6     9
-3.9945409100e-02     1     3     7     1
-8.4363558000e-03     1     3     7     2
 1.3210000000e-07     1     3     7     4
-2.6401340000e-04     1     3     7     5
 1.0273426900e-02     1     3     7     6
 3.8576000000e-06     1     3     7     7
-1.6022100000e-05     1     3     7     8
 4.4150727000e-03     1     3     7     9
-5.8348384800e-02     1     3     8     1
-1.2325240400e-02     1     3     8     2
 2.5710000000e-07     1     3     8     4
-3.8642970000e-04     1     3     8     5
 1.5005373000e-02     1     3     8     6
 3.4487900000e-05     1     3     8     7
-1.6085200000e-05     1     3     8     8
 6.4441573000e-03     1     3     8     9
 9.3093500000e-05     1     3     9     1
 2.0424800000e-05     1     3     9     2
 8.7000000000e-09     1     3     9     4
-1.5200000000e-08     1     3     9     5
-1.4389300000e-05     1     3     9     6
 3.1452649000e-03     1     3     9     7
 4.5974882000e-03     1     3     9     8
-2.2118000000e-05     1     3     9     9
 2.2331700000e-05     1     4     2     1
 5.7656100000e-05     1     4     2     2
-1.8300000000e-08     1     4     2     3
 9.1880000000e-07     1     4     2     5
 7.0826800000e-05     1     4     2     6
-3.2330799400e-02     1     4     2     7
 2.2133539200e-02     1     4     2     8
 6.4721800000e-05     1     4     2     9
 4.5800000000e-08     1     4     3     1
 9.7000000000e-09     1     4     3     2
 5.5149000000e-05     1     4     3     3
 2.2000000000e-09     1     4     3     5
-2.2500000000e-08     1     4     3     6
-1.8149800000e-05     1     4     3     7
-1.5234700000e-05     1     4     3     8
-1.0493900000e-05     1     4     3     9
-1.5136726820e-01     1     4     4     1
-9.2548571500e-02     1     4     4     2
 9.2030000000e-06     1     4     4     3
 2.7171488600e-02     1     4     4     5
 1.6001038100e-02     1     4     4     6
 5.8043200000e-05     1     4     4     7
-5.7796300000e-05     1     4     4     8
 3.7641980000e-04     1     4     4     9
 2.5483100000e-05     1     4     5     1
 5.6424000000e-06     1     4     5     2
-8.8000000000e-09     1     4     5     3
 5.7999100000e-05     1     4     5     5
-1.0559500000e-05     1     4     5     6
-8.9330493000e-03     1     4     5     7
 6.1267507000e-03     1     4     5     8
-9.6971000000e-06     1     4     5     9
-1.6022170000e-04     1     4     6     1
-2.9372500000e-05     1     4     6     2
-1.4900000000e-08     1     4     6     3
-3.5010000000e-07     1     4     6     5
 8.8045700000e-05     1     4     6     6
 4.4868895000e-03     1     4     6     7
-3.0740010000e-03     1     4     6     8
-2.1868500000e-05     1     4     6     9
 5.8390342200e-02     1     4     7     1
 1.2335468000e-02     1     4     7     2
-1.3210000000e-07     1     4     7     3
 3.8672090000e-04     1     4     7     5
-1.5016117000e-02     1     4     7     6
 3.8799000000e-05     1     4     7     7
 1.4895000000e-05     1     4     7     8
-6.4418264000e-03     1     4     7     9
-3.9964473400e-02     1     4     8     1
-8.4424855000e-03     1     4     8     2
-2.5710000000e-07     1     4     8     3
-2.6420200000e-04     1     4     8     5
 1.0278085500e-02     1     4     8     6
 8.7050000000e-06     1     4     8     7
 5.8052600000e-05     1     4     8     8
 4.4108101000e-03     1     4     8     9
-1.2881930000e-04     1     4     9     1
-2.5056800000e-05     1     4     9     2
-8.7000000000e-09     1     4     9     3
 9.3670000000e-07     1     4     9     5
 2.1203100000e-05     1     4     9     6
-4.5926553000e-03     1     4     9     7
 3.1455654000e-03     1     4     9     8
 5.2695800000e-05     1     4     9     9
-1.1225531100e-02     1     5     2     1
-2.8266821400e-02     1     5     2     2
-6.0500000000e-07     1     5     2     3
-9.1880000000e-07     1     5     2     4
 5.0367840000e-03     1     5     2     6
-7.5989800000e-05     1     5     2     7
-1.8889300000e-05     1     5     2     8
-4.0289599900e-02     1     5     2     9
-5.4390000000e-06     1     5     3     1
-1.7867000000e-06     1     5     3     2
-2.7170710600e-02     1     5     3     3
-2.2000000000e-09     1     5     3     4
 6.2128000000e-06     1     5     3     6
 6.4067365000e-03     1     5     3     7
 9.3552030000e-03     1     5     3     8
-2.0791300000e-05     1     5     3     9
 2.5483100000e-05     1     5     4     1
 4.7236000000e-06     1     5     4     2
-1.1000000000e-08     1     5     4     3
-2.7171488600e-02     1     5     4     4
-1.0209400000e-05     1     5     4     6
-9.3197702000e-03     1     5     4     7
 6.3909527000e-03     1     5     4     8
-1.0633800000e-05     1     5     4     9
-1.6745735190e-01     1     5     5     1
-9.6503851200e-02     1     5     5     2
 9.7462000000e-06     1     5     5     3
-5.7999100000e-05     1     5     5     4
 3.4279162600e-02     1     5     5     6
 2.4020400000e-05     1     5     5     7
-8.5011000000e-06     1     5     5     8
 1.3296267000e-03     1     5     5     9
 5.9972309000e-03     1     5     6     1
-1.2023020000e-03     1     5     6     2
-3.1260000000e-07     1     5     6     3
 3.5010000000e-07     1     5     6     4
-2.6413887400e-02     1     5     6     6
 1.9695800000e-05     1     5     6     7
 8.5127000000e-06     1     5     6     8
 2.1708856900e-02     1     5     6     9
 1.6924760000e-04     1     5     7     1
 3.0103500000e-05     1     5     7     2
 2.6401340000e-04     1     5     7     3
-3.8672090000e-04     1     5     7     4
-3.1374900000e-05     1     5     7     6
-3.0352919600e-02     1     5     7     7
-3.3700000000e-06     1     5     7     8
 2.2584600000e-05     1     5     7     9
 3.1910700000e-05     1     5     8     1
 7.5693000000e-06     1     5     8     2
 3.8642970000e-04     1     5     8     3
 2.6420200000e-04     1     5     8     4
-4.6181000000e-06     1     5     8     6
 6.0280000000e-07     1     5     8     7
-3.0354538600e-02     1     5     8     8
-1.5906800000e-05     1     5     8     9
 7.7515419200e-02     1     5     9     1
 1.5552786100e-02     1     5     9     2
 1.5200000000e-08     1     5     9     3
-9.3670000000e-07     1     5     9     4
-7.0726549000e-03     1     5     9     6
-2.3193300000e-05     1     5     9     7
 2.1273300000e-05     1     5     9     8
-2.7490346600e-02     1     5     9     9
 9.4362746200e-02     1     6     2     1
 5.8825275800e-02     1     6     2     2
-7.5250000000e-06     1     6     2     3
-7.0826800000e-05     1     6     2     4
-5.0367840000e-03     1     6     2     5
 7.6910000000e-07     1     6     2     7
 6.7527000000e-06     1     6     2     8
 6.3618722000e-03     1     6     2     9
-8.8440000000e-06     1     6     3     1
-9.5389000000e-06     1     6     3     2
-1.6015001300e-02     1     6     3     3
 2.2500000000e-08     1     6     3     4
-6.2128000000e-06     1     6     3     5
-1.3348427800e-02     1     6     3     7
-1.9497084700e-02     1     6     3     8
 3.7223500000e-05     1     6     3     9
-1.6022170000e-04     1     6     4     1
-1.0019930000e-04     1     6     4     2
 7.6000000000e-09     1     6     4     3
-1.6001038100e-02     1     6     4     4
 1.0209400000e-05     1     6     4     5
 1.9503006500e-02     1     6     4     7
-1.3352086500e-02     1     6     4     8
-4.3071600000e-05     1     6     4     9
 5.9972309000e-03     1     6     5     1
-6.2390860000e-03     1     6     5     2
-6.5254000000e-06     1     6     5     3
 1.0559500000e-05     1     6     5     4
-3.4279162600e-02     1     6     5     5
 5.1070700000e-05     1     6     5     7
 1.3130800000e-05     1     6     5     8
 2.8781511800e-02     1     6     5     9
-2.1474512060e-01     1     6     6     1
-1.0435238040e-01     1     6     6     2
 6.8823000000e-06     1     6     6     3
-8.8045700000e-05     1     6     6     4
 2.6413887400e-02     1     6     6     5
 1.9185400000e-05     1     6     6     7
-1.0294900000e-05     1     6     6     8
 1.0825385000e-03     1     6     6     9
-1.0491500000e-05     1     6     7     1
-9.6573000000e-06     1     6     7     2
-1.0273426900e-02     1     6     7     3
 1.5016117000e-02     1     6     7     4
 3.1374900000e-05     1     6     7     5
-1.0483396900e-02     1     6     7     7
 5.6951000000e-06     1     6     7     8
 1.3930000000e-06     1     6     7     9
 1.3095000000e-05     1     6     8     1
 1.4124800000e-05     1     6     8     2
-1.5005373000e-02     1     6     8     3
-1.0278085500e-02     1     6     8     4
 4.6181000000e-06     1     6     8     5
 5.9681000000e-06     1     6     8     7
-1.0479380400e-02     1     6     8     8
 1.0401000000e-06     1     6     8     9
 3.9700274000e-03     1     6     9     1
 3.0618675000e-03     1     6     9     2
 1.4389300000e-05     1     6     9     3
-2.1203100000e-05     1     6     9     4
 7.0726549000e-03     1     6     9     5
 1.7242000000e-06     1     6     9     7
 1.9995000000e-06     1     6     9     8
-1.3510081100e-02     1     6     9     9
 1.5006240000e-04     1     7     2     1
 9.6996400000e-05     1     7     2     2
-2.2130746700e-02     1     7     2     3
 3.2330799400e-02     1     7     2     4
 7.5989800000e-05     1     7     2     5
-7.6910000000e-07     1     7     2     6
-1.9245000000e-06     1     7     2     8
 1.0123500000e-05     1     7     2     9
-3.9945409100e-02     1     7     3     1
-3.0567102500e-02     1     7     3     2
-3.3573600000e-05     1     7     3     3
 1.8149800000e-05     1     7     3     4
-6.4067365000e-03     1     7     3     5
 1.3348427800e-02     1     7     3     6
-5.0510000000e-05     1     7     3     8
 1.2698078000e-03     1     7     3     9
 5.8390342200e-02     1     7     4     1
 4.4666267400e-02     1     7     4     2
 1.8017700000e-05     1     7     4     3
-5.8043200000e-05     1     7     4     4
 9.3197702000e-03     1     7     4     5
-1.9503006500e-02     1     7     4     6
 6.1900000000e-06     1     7     4     8
-1.8491711000e-03     1     7     4     9
 1.6924760000e-04     1     7     5     1
 1.0609330000e-04     1     7     5     2
-6.1427231000e-03     1     7     5     3
 8.9330493000e-03     1     7     5     4
-2.4020400000e-05     1     7     5     5
-5.1070700000e-05     1     7     5     6
-3.9728000000e-06     1     7     5     8
 4.5777900000e-05     1     7     5     9
-1.0491500000e-05     1     7     6     1
-1.0426400000e-05     1     7     6     2
 3.0750009000e-03     1     7     6     3
-4.4868895000e-03     1     7     6     4
-1.9695800000e-05     1     7     6     5
-1.9185400000e-05     1     7     6     6
-2.7300000000e-07     1     7     6     8
-3.3120000000e-07     1     7     6     9
-2.1751405510e-01     1     7     7     1
-1.0421985090e-01     1     7     7     2
-3.8576000000e-06     1     7     7     3
-3.8799000000e-05     1     7     7     4
 3.0352919600e-02     1     7     7     5
 1.0483396900e-02     1     7     7     6
-1.5207100000e-05     1     7     7     8
 1.0082971000e-03     1     7     7     9
 5.7577000000e-06     1     7     8     1
 3.6309000000e-06     1     7     8     2
-3.4487900000e-05     1     7     8     3
-8.7050000000e-06     1     7     8     4
-6.0280000000e-07     1     7     8     5
-5.9681000000e-06     1     7     8     6
-1.9682500000e-05     1     7     8     8
-2.3246000000e-06     1     7     8     9
 1.4063200000e-05     1     7     9     1
 7.9913000000e-06     1     7     9     2
-3.1452649000e-03     1     7     9     3
 4.5926553000e-03     1     7     9     4
 2.3193300000e-05     1     7     9     5
-1.7242000000e-06     1     7     9     6
-3.0980000000e-07     1     7     9     8
-2.4391400000e-05     1     7     9     9
-1.4567600000e-04     1     8     2     1
-7.6081400000e-05     1     8     2     2
-3.2323806800e-02     1     8     2     3
-2.2133539200e-02     1     8     2     4
 1.8889300000e-05     1     8     2     5
-6.7527000000e-06     1     8     2     6
 1.9245000000e-06     1     8     2     7
-8.6701000000e-06     1     8     2     9
-5.8348384800e-02     1     8     3     1
-4.4649047200e-02     1     8     3     2
 2.0466900000e-05     1     8     3     3
 1.5234700000e-05     1     8     3     4
-9.3552030000e-03     1     8     3     5
 1.9497084700e-02     1     8     3     6
 5.0510000000e-05     1     8     3     7
 1.8466691000e-03     1     8     3     9
-3.9964473400e-02     1     8     4     1
-3.0576024700e-02     1     8     4     2
 1.4977600000e-05     1     8     4     3
 5.7796300000e-05     1     8     4     4
-6.3909527000e-03     1     8     4     5
 1.3352086500e-02     1     8     4     6
-6.1900000000e-06     1     8     4     7
 1.2652447000e-03     1     8     4     9
 3.1910700000e-05     1     8     5     1
 2.6458600000e-05     1     8     5     2
-8.9687733000e-03     1     8     5     3
-6.1267507000e-03     1     8     5     4
 8.5011000000e-06     1     8     5     5
-1.3130800000e-05     1     8     5     6
 3.9728000000e-06     1     8     5     7
-3.7180100000e-05     1     8     5     9
 1.3095000000e-05     1     8     6     1
 7.3721000000e-06     1     8     6     2
 4.4917117000e-03     1     8     6     3
 3.0740010000e-03     1     8     6     4
-8.5127000000e-06     1     8     6     5
 1.0294900000e-05     1     8     6     6
 2.7300000000e-07     1     8     6     7
-9.5940000000e-07     1     8     6     9
 5.7577000000e-06     1     8     7     1
 5.5554000000e-06     1     8     7     2
 1.6022100000e-05     1     8     7     3
-1.4895000000e-05     1     8     7     4
 3.3700000000e-06     1     8     7     5
-5.6951000000e-06     1     8     7     6
 1.5207100000e-05     1     8     7     7
-2.0148000000e-06     1     8     7     9
-2.1751858680e-01     1     8     8     1
-1.0422090470e-01     1     8     8     2
 1.6085200000e-05     1     8     8     3
-5.8052600000e-05     1     8     8     4
 3.0354538600e-02     1     8     8     5
 1.0479380400e-02     1     8     8     6
 1.9682500000e-05     1     8     8     7
 1.0048066000e-03     1     8     8     9
-1.6062000000e-06     1     8     9     1
-7.0120000000e-06     1     8     9     2
-4.5974882000e-03     1     8     9     3
-3.1455654000e-03     1     8     9     4
-2.1273300000e-05     1     8     9     5
-1.9995000000e-06     1     8     9     6
 3.0980000000e-07     1     8     9     7
 1.8729400000e-05     1     8     9     9
-1.3018380300e-02     1     9     2     1
 4.7704369000e-03     1     9     2     2
 5.5921000000e-05     1     9     2     3
-6.4721800000e-05     1     9     2     4
 4.0289599900e-02     1     9     2     5
-6.3618722000e-03     1     9     2     6
-1.0123500000e-05     1     9     2     7
 8.6701000000e-06     1     9     2     8
 9.3093500000e-05     1     9     3     1
 7.6345800000e-05     1     9     3     2
-3.3989040000e-04     1     9     3     3
 1.0493900000e-05     1     9     3     4
 2.0791300000e-05     1     9     3     5
-3.7223500000e-05     1     9     3     6
-1.2698078000e-03     1     9     3     7
-1.8466691000e-03     1     9     3     8
-1.2881930000e-04     1     9     4     1
-8.9778600000e-05     1     9     4     2
 1.0485200000e-05     1     9     4     3
-3.7641980000e-04     1     9     4     4
 1.0633800000e-05     1     9     4     5
 4.3071600000e-05     1     9     4     6
 1.8491711000e-03     1     9     4     7
-1.2652447000e-03     1     9     4     8
 7.7515419200e-02     1     9     5     1
 5.5842386000e-02     1     9     5     2
 2.0806500000e-05     1     9     5     3
 9.6971000000e-06     1     9     5     4
-1.3296267000e-03     1     9     5     5
-2.8781511800e-02     1     9     5     6
-4.5777900000e-05     1     9     5     7
 3.7180100000e-05     1     9     5     8
 3.9700274000e-03     1     9     6     1
-3.3000047000e-03     1     9     6     2
-2.2834200000e-05     1     9     6     3
 2.1868500000e-05     1     9     6     4
-2.1708856900e-02     1     9     6     5
-1.0825385000e-03     1     9     6     6
 3.3120000000e-07     1     9     6     7
 9.5940000000e-07     1     9     6     8
 1.4063200000e-05     1     9     7     1
-2.1322000000e-06     1     9     7     2
-4.4150727000e-03     1     9     7     3
 6.4418264000e-03     1     9     7     4
-2.2584600000e-05     1     9     7     5
-1.3930000000e-06     1     9     7     6
-1.0082971000e-03     1     9     7     7
 2.0148000000e-06     1     9     7     8
-1.6062000000e-06     1     9     8     1
 1.6581000000e-06     1     9     8     2
-6.4441573000e-03     1     9     8     3
-4.4108101000e-03     1     9     8     4
 1.5906800000e-05     1     9     8     5
-1.0401000000e-06     1     9     8     6
 2.3246000000e-06     1     9     8     7
-1.0048066000e-03     1     9     8     8
-2.4576178200e-01     1     9     9     1
-1.2452907300e-01     1     9     9     2
 2.2118000000e-05     1     9     9     3
-5.2695800000e-05     1     9     9     4
 2.7490346600e-02     1     9     9     5
 1.3510081100e-02     1     9     9     6
 2.4391400000e-05     1     9     9     7
-1.8729400000e-05     1     9     9     8
-1.2309928520e-01     2     1     1     2
-2.3733000000e-06     2     1     1     3
 2.2331700000e-05     2     1     1     4
-1.1225531100e-02     2     1     1     5
 9.4362746200e-02     2     1     1     6
 1.5006240000e-04     2     1     1     7
-1.4567600000e-04     2     1     1     8
-1.3018380300e-02     2     1     1     9
 8.7273000000e-06     2     1     3     2
 9.2566256900e-02     2     1     3     3
-2.8000000000e-08     2     1     3     4
 1.1817000000e-06     2     1     3     5
 2.0139000000e-06     2     1     3     6
 8.4363558000e-03     2     1     3     7
 1.2325240400e-02     2     1     3     8
-2.0424800000e-05     2     1     3     9
-5.7656100000e-05     2     1     4     2
-9.7000000000e-09     2     1     4     3
 9.2548571500e-02     2     1     4     4
-5.6424000000e-06     2     1     4     5
 2.9372500000e-05     2     1     4     6
-1.2335468000e-02     2     1     4     7
 8.4424855000e-03     2     1     4     8
 2.5056800000e-05     2     1     4     9
 2.8266821400e-02     2     1     5     2
 1.7867000000e-06     2     1     5     3
-4.7236000000e-06     2     1     5     4
 9.6503851200e-02     2     1     5     5
 1.2023020000e-03     2     1     5     6
-3.0103500000e-05     2     1     5     7
-7.5693000000e-06     2     1     5     8
-1.5552786100e-02     2     1     5     9
-5.8825275800e-02     2     1     6     2
 9.5389000000e-06     2     1     6     3
 1.0019930000e-04     2     1     6     4
 6.2390860000e-03     2     1     6     5
 1.0435238040e-01     2     1     6     6
 9.6573000000e-06     2     1     6     7
-1.4124800000e-05     2     1     6     8
-3.0618675000e-03     2     1     6     9
-9.6996400000e-05     2     1     7     2
 3.0567102500e-02     2     1     7     3
-4.4666267400e-02     2     1     7     4
-1.0609330000e-04     2     1     7     5
 1.0426400000e-05     2     1     7     6
 1.0421985090e-01     2     1     7     7
-3.6309000000e-06     2     1     7     8
-7.9913000000e-06     2     1     7     9
 7.6081400000e-05     2     1     8     2
 4.4649047200e-02     2     1     8     3
 3.0576024700e-02     2     1     8     4
-2.6458600000e-05     2     1     8     5
-7.3721000000e-06     2     1     8     6
-5.5554000000e-06     2     1     8     7
 1.0422090470e-01     2     1     8     8
 7.0120000000e-06     2     1     8     9
-4.7704369000e-03     2     1     9     2
-7.6345800000e-05     2     1     9     3
 8.9778600000e-05     2     1     9     4
-5.5842386000e-02     2     1     9     5
 3.3000047000e-03     2     1     9     6
 2.1322000000e-06     2     1     9     7
-1.6581000000e-06     2     1     9     8
 1.2452907300e-01     2     1     9     9
 1.2309928520e-01     2     2     1     1
-8.7273000000e-06     2     2     1     3
 5.7656100000e-05     2     2     1     4
-2.8266821400e-02     2     2     1     5
 5.8825275800e-02     2     2     1     6
 9.6996400000e-05     2     2     1     7
-7.6081400000e-05     2     2     1     8
 4.7704369000e-03     2     2     1     9
-8.7273000000e-06     2     2     3     1
 1.6283593350e-01     2     2     3     3
-5.2900000000e-08     2     2     3     4
 5.6900000000e-06     2     2     3     5
 1.0418400000e-05     2     2     3     6
 4.6352225700e-02     2     2     3     7
 6.7705561000e-02     2     2     3     8
-1.0612230000e-04     2     2     3     9
 5.7656100000e-05     2     2     4     1
-5.2900000000e-08     2     2     4     3
 1.6278465050e-01     2     2     4     4
-2.5303400000e-05     2     2     4     5
 1.7814540000e-04     2     2     4     6
-6.7760916600e-02     2     2     4     7
 4.6380165700e-02     2     2     4     8
 1.2870550000e-04     2     2     4     9
-2.8266821400e-02     2     2     5     1
 5.6900000000e-06     2     2     5     3
-2.5303400000e-05     2     2     5     4
 1.7921316010e-01     2     2     5     5
-2.5261320000e-03     2     2     5     6
-1.8249020000e-04     2     2     5     7
-3.0218600000e-05     2     2     5     8
-7.8906248300e-02     2     2     5     9
 5.8825275800e-02     2     2     6     1
 1.0418400000e-05     2     2     6     3
 1.7814540000e-04     2     2     6     4
-2.5261320000e-03     2     2     6     5
 1.3041797440e-01     2     2     6     6
-4.1236800000e-05     2     2     6     7
 2.8190800000e-05     2     2     6     8
-5.2631409000e-03     2     2     6     9
 9.6996400000e-05     2     2     7     1
 4.6352225700e-02     2     2     7     3
-6.7760916600e-02     2     2     7     4
-1.8249020000e-04     2     2     7     5
-4.1236800000e-05     2     2     7     6
 1.6281009440e-01     2     2     7     7
-4.3761000000e-06     2     2     7     8
-1.8050100000e-05     2     2     7     9
-7.6081400000e-05     2     2     8     1
 6.7705561000e-02     2     2     8     3
 4.6380165700e-02     2     2     8     4
-3.0218600000e-05     2     2     8     5
 2.8190800000e-05     2     2     8     6
-4.3761000000e-06     2     2     8     7
 1.6281724310e-01     2     2     8     8
-1.6398000000e-06     2     2     8     9
 4.7704369000e-03     2     2     9     1
-1.0612230000e-04     2     2     9     3
 1.2870550000e-04     2     2     9     4
-7.8906248300e-02     2     2     9     5
-5.2631409000e-03     2     2     9     6
-1.8050100000e-05     2     2     9     7
-1.6398000000e-06     2     2     9     8
 1.8463419060e-01     2     2     9     9
 2.3733000000e-06     2     3     1     1
 8.7273000000e-06     2     3     1     2
-1.8300000000e-08     2     3     1     4
-6.0500000000e-07     2     3     1     5
-7.5250000000e-06     2     3     1     6
-2.2130746700e-02     2     3     1     7
-3.2323806800e-02     2     3     1     8
 5.5921000000e-05     2     3     1     9