&FCI NORB=  9,NELEC=  2,MS2=0,
 ORBSYM=1,1,1,1,1,1,1,1,1
 ISYM=1,
&END
 1.2899966600e-02     1     1     2     2
-3.9564989000e-03     1     1     2     3
 1.9621800000e-05     1     1     2     4
 7.9856000000e-06     1     1     2     5
-6.0402716800e-02     1     1     2     6
 4.7777590000e-04     1     1     2     7
 1.0359430000e-04     1     1     2     8
-2.4173614700e-02     1     1     2     9
-3.9564989000e-03     1     1     3     2
 9.3544427200e-02     1     1     3     3
 5.4221000000e-06     1     1     3     4
 1.5918000000e-06     1     1     3     5
-4.5334607000e-03     1     1     3     6
-1.4890879000e-03     1     1     3     7
-2.6575440000e-04     1     1     3     8
 6.3339146300e-02     1     1     3     9
 1.9621800000e-05     1     1     4     2
 5.4221000000e-06     1     1     4     3
 9.7651053200e-02     1     1     4     4
-1.7000000000e-09     1     1     4     5
 1.8601000000e-05     1     1     4     6
-6.0553820300e-02     1     1     4     7
 1.6058173300e-02     1     1     4     8
-1.3879315000e-03     1     1     4     9
 7.9856000000e-06     1     1     5     2
 1.5918000000e-06     1     1     5     3
-1.7000000000e-09     1     1     5     4
 9.7651779300e-02     1     1     5     5
 5.9591000000e-06     1     1     5     6
-1.6049544700e-02     1     1     5     7
-6.0559322500e-02     1     1     5     8
-6.4642470000e-04     1     1     5     9
-6.0402716800e-02     1     1     6     2
-4.5334607000e-03     1     1     6     3
 1.8601000000e-05     1     1     6     4
 5.9591000000e-06     1     1     6     5
 1.1333736180e-01     1     1     6     6
 1.5105860000e-04     1     1     6     7
 3.2440000000e-05     1     1     6     8
-7.8218187000e-03     1     1     6     9
 4.7777590000e-04     1     1     7     2
-1.4890879000e-03     1     1     7     3
-6.0553820300e-02     1     1     7     4
-1.6049544700e-02     1     1     7     5
 1.5105860000e-04     1     1     7     6
 1.1790145210e-01     1     1     7     7
 1.2910000000e-07     1     1     7     8
-5.3393600000e-05     1     1     7     9
 1.0359430000e-04     1     1     8     2
-2.6575440000e-04     1     1     8     3
 1.6058173300e-02     1     1     8     4
-6.0559322500e-02     1     1     8     5
 3.2440000000e-05     1     1     8     6
 1.2910000000e-07     1     1     8     7
 1.1788610670e-01     1     1     8     8
-8.7606000000e-06     1     1     8     9
-2.4173614700e-02     1     1     9     2
 6.3339146300e-02     1     1     9     3
-1.3879315000e-03     1     1     9     4
-6.4642470000e-04     1     1     9     5
-7.8218187000e-03     1     1     9     6
-5.3393600000e-05     1     1     9     7
-8.7606000000e-06     1     1     9     8
 1.2376009180e-01     1     1     9     9
-1.2899966600e-02     1     2     2     1
-2.5543493600e-02     1     2     2     3
 9.9694300000e-05     1     2     2     4
 2.3299200000e-05     1     2     2     5
 4.3417065700e-02     1     2     2     6
-1.2160290000e-04     1     2     2     7
-2.6516300000e-05     1     2     2     8
 6.2977241000e-03     1     2     2     9
 3.9564989000e-03     1     2     3     1
-8.1801368000e-02     1     2     3     3
 1.0546400000e-05     1     2     3     4
 2.9473000000e-06     1     2     3     5
-4.9731559000e-03     1     2     3     6
 1.2022555000e-03     1     2     3     7
 2.1343100000e-04     1     2     3     8
-5.0614739300e-02     1     2     3     9
-1.9621800000e-05     1     2     4     1
 1.0303000000e-05     1     2     4     3
-8.1421055400e-02     1     2     4     4
 1.8020000000e-07     1     2     4     5
 1.8745200000e-05     1     2     4     6
 4.9848855000e-02     1     2     4     7
-1.3220131900e-02     1     2     4     8
 1.1306654000e-03     1     2     4     9
-7.9856000000e-06     1     2     5     1
 2.6421000000e-06     1     2     5     3
-2.0710000000e-07     1     2     5     4
-8.1421422700e-02     1     2     5     5
 3.1476000000e-06     1     2     5     6
 1.3212088100e-02     1     2     5     7
 4.9858203800e-02     1     2     5     8
 5.2699220000e-04     1     2     5     9
 6.0402716800e-02     1     2     6     1
-6.3964990000e-04     1     2     6     3
 1.0189000000e-06     1     2     6     4
-1.2036000000e-06     1     2     6     5
-7.3258335100e-02     1     2     6     6
-2.9731770000e-04     1     2     6     7
-6.4042700000e-05     1     2     6     8
 1.5604573500e-02     1     2     6     9
-4.7777590000e-04     1     2     7     1
 6.7836820000e-04     1     2     7     3
 2.9045160100e-02     1     2     7     4
 7.6972463000e-03     1     2     7     5
-1.2944640000e-04     1     2     7     6
-7.9690687200e-02     1     2     7     7
 1.9760000000e-07     1     2     7     8
 2.6639400000e-05     1     2     7     9
-1.0359430000e-04     1     2     8     1
 1.1945780000e-04     1     2     8     3
-7.7018868000e-03     1     2     8     4
 2.9050220800e-02     1     2     8     5
-2.8102900000e-05     1     2     8     6
-1.6770000000e-07     1     2     8     7
-7.9678205900e-02     1     2     8     8
 3.2970000000e-06     1     2     8     9
 2.4173614700e-02     1     2     9     1
-2.8385438300e-02     1     2     9     3
 6.5478620000e-04     1     2     9     4
 3.0616410000e-04     1     2     9     5
 6.9872064000e-03     1     2     9     6
 2.6719500000e-05     1     2     9     7
 3.2173000000e-06     1     2     9     8
-8.3318467300e-02     1     2     9     9
 3.9564989000e-03     1     3     2     1
 2.5543493600e-02     1     3     2     2
 2.4340000000e-07     1     3     2     4
 3.0520000000e-07     1     3     2     5
-4.3335060000e-03     1     3     2     6
 5.2388730000e-04     1     3     2     7
 9.3973200000e-05     1     3     2     8
-2.2229301000e-02     1     3     2     9
-9.3544427200e-02     1     3     3     1
 8.1801368000e-02     1     3     3     2
 1.4886960000e-04     1     3     3     4
 3.9181400000e-05     1     3     3     5
-2.9919197000e-02     1     3     3     6
-1.9751380000e-04     1     3     3     7
-4.1854500000e-05     1     3     3     8
 1.0386152600e-02     1     3     3     9
-5.4221000000e-06     1     3     4     1
-1.0303000000e-05     1     3     4     2
 3.7724896100e-02     1     3     4     4
-1.0800000000e-07     1     3     4     5
 4.2299000000e-06     1     3     4     6
-2.6357499000e-03     1     3     4     7
 6.9739570000e-04     1     3     4     8
-7.5403900000e-05     1     3     4     9
-1.5918000000e-06     1     3     5     1
-2.6421000000e-06     1     3     5     2
 1.0830000000e-07     1     3     5     4
 3.7724945700e-02     1     3     5     5
 1.4034000000e-06     1     3     5     6
-6.9862310000e-04     1     3     5     7
-2.6281590000e-03     1     3     5     8
-3.5971000000e-05     1     3     5     9
 4.5334607000e-03     1     3     6     1
 6.3964990000e-04     1     3     6     2
 4.9800000000e-08     1     3     6     4
 2.1460000000e-07     1     3     6     5
 3.7143314000e-02     1     3     6     6
-3.8323260000e-04     1     3     6     7
-6.7406700000e-05     1     3     6     8
 1.6540031100e-02     1     3     6     9
 1.4890879000e-03     1     3     7     1
-6.7836820000e-04     1     3     7     2
-2.8290840000e-03     1     3     7     4
-7.5016070000e-04     1     3     7     5
 2.2118290000e-04     1     3     7     6
 3.9676207700e-02     1     3     7     7
-2.6870000000e-07     1     3     7     8
 4.9704300000e-05     1     3     7     9
 2.6575440000e-04     1     3     8     1
-1.1945780000e-04     1     3     8     2
 7.5044910000e-04     1     3     8     4
-2.8290821000e-03     1     3     8     5
 3.8685400000e-05     1     3     8     6
-1.3900000000e-07     1     3     8     7
 3.9676064300e-02     1     3     8     8
 9.0103000000e-06     1     3     8     9
-6.3339146300e-02     1     3     9     1
 2.8385438300e-02     1     3     9     2
-5.2188000000e-05     1     3     9     4
-2.6646400000e-05     1     3     9     5
-8.8587727000e-03     1     3     9     6
 4.2815700000e-05     1     3     9     7
 8.8031000000e-06     1     3     9     8
 3.7941485800e-02     1     3     9     9
-1.9621800000e-05     1     4     2     1
-9.9694300000e-05     1     4     2     2
-2.4340000000e-07     1     4     2     3
 3.8730000000e-07     1     4     2     5
 1.7726300000e-05     1     4     2     6
 2.0803694900e-02     1     4     2     7
-5.5182451000e-03     1     4     2     8
 4.7587920000e-04     1     4     2     9
-5.4221000000e-06     1     4     3     1
-1.0546400000e-05     1     4     3     2
-1.4886960000e-04     1     4     3     3
-2.1630000000e-07     1     4     3     5
 4.1801000000e-06     1     4     3     6
 1.9333410000e-04     1     4     3     7
-5.3053400000e-05     1     4     3     8
-2.3215900000e-05     1     4     3     9
-9.7651053200e-02     1     4     4     1
 8.1421055400e-02     1     4     4     2
-3.7724896100e-02     1     4     4     3
 3.9593800000e-05     1     4     4     5
-2.9472287100e-02     1     4     4     6
-1.2656880000e-04     1     4     4     7
-3.1645600000e-05     1     4     4     8
 6.6555269000e-03     1     4     4     9
 1.7000000000e-09     1     4     5     1
 2.0710000000e-07     1     4     5     2
-1.0830000000e-07     1     4     5     3
-1.5047080000e-04     1     4     5     5
-4.7800000000e-08     1     4     5     6
 1.7614000000e-06     1     4     5     7
 1.1748600000e-05     1     4     5     8
 4.2510000000e-07     1     4     5     9
-1.8601000000e-05     1     4     6     1
-1.0189000000e-06     1     4     6     2
-4.9800000000e-08     1     4     6     3
-7.3800000000e-08     1     4     6     5
-1.4809080000e-04     1     4     6     6
-1.6217274100e-02     1     4     6     7
 4.3017353000e-03     1     4     6     8
-3.7840370000e-04     1     4     6     9
 6.0553820300e-02     1     4     7     1
-2.9045160100e-02     1     4     7     2
 2.8290840000e-03     1     4     7     3
-1.3090000000e-07     1     4     7     5
 9.6502984000e-03     1     4     7     6
-1.8842360000e-04     1     4     7     7
-9.0440000000e-06     1     4     7     8
 1.7525368000e-03     1     4     7     9
-1.6058173300e-02     1     4     8     1
 7.7018868000e-03     1     4     8     2
-7.5044910000e-04     1     4     8     3
 1.2584400000e-05     1     4     8     5
-2.5587897000e-03     1     4     8     6
 1.0479600000e-05     1     4     8     7
-1.5582630000e-04     1     4     8     8
-4.6444870000e-04     1     4     8     9
 1.3879315000e-03     1     4     9     1
-6.5478620000e-04     1     4     9     2
 5.2188000000e-05     1     4     9     3
 2.8110000000e-07     1     4     9     5
 2.0815470000e-04     1     4     9     6
-2.9315740000e-04     1     4     9     7
 7.7233200000e-05     1     4     9     8
-1.2602480000e-04     1     4     9     9
-7.9856000000e-06     1     5     2     1
-2.3299200000e-05     1     5     2     2
-3.0520000000e-07     1     5     2     3
-3.8730000000e-07     1     5     2     4
 4.3512000000e-06     1     5     2     6
 5.5148418000e-03     1     5     2     7
 2.0807983000e-02     1     5     2     8
 2.2082810000e-04     1     5     2     9
-1.5918000000e-06     1     5     3     1
-2.9473000000e-06     1     5     3     2
-3.9181400000e-05     1     5     3     3
 2.1630000000e-07     1     5     3     4
 1.1888000000e-06     1     5     3     6
 5.1537600000e-05     1     5     3     7
 2.0092310000e-04     1     5     3     8
-9.3246000000e-06     1     5     3     9
 1.7000000000e-09     1     5     4     1
-1.8020000000e-07     1     5     4     2
 1.0800000000e-07     1     5     4     3
-3.9593800000e-05     1     5     4     4
 2.6000000000e-08     1     5     4     6
 1.8923000000e-06     1     5     4     7
-8.3580000000e-07     1     5     4     8
 1.4400000000e-07     1     5     4     9
-9.7651779300e-02     1     5     5     1
 8.1421422700e-02     1     5     5     2
-3.7724945700e-02     1     5     5     3
 1.5047080000e-04     1     5     5     4
-2.9472464100e-02     1     5     5     6
-1.2708000000e-04     1     5     5     7
-2.7165800000e-05     1     5     5     8
 6.6550522000e-03     1     5     5     9
-5.9591000000e-06     1     5     6     1
 1.2036000000e-06     1     5     6     2
-2.1460000000e-07     1     5     6     3
 7.3800000000e-08     1     5     6     4
-3.9016200000e-05     1     5     6     6
-4.2995274000e-03     1     5     6     7
-1.6219250500e-02     1     5     6     8
-1.7704180000e-04     1     5     6     9
 1.6049544700e-02     1     5     7     1
-7.6972463000e-03     1     5     7     2
 7.5016070000e-04     1     5     7     3
 1.3090000000e-07     1     5     7     4
 2.5569583000e-03     1     5     7     6
-4.9310200000e-05     1     5     7     7
 3.7667000000e-06     1     5     7     8
 4.6456060000e-04     1     5     7     9
 6.0559322500e-02     1     5     8     1
-2.9050220800e-02     1     5     8     2
 2.8290821000e-03     1     5     8     3
-1.2584400000e-05     1     5     8     4
 9.6529309000e-03     1     5     8     6
-3.5538500000e-05     1     5     8     7
-4.6972300000e-05     1     5     8     8
 1.7512900000e-03     1     5     8     9
 6.4642470000e-04     1     5     9     1
-3.0616410000e-04     1     5     9     2
 2.6646400000e-05     1     5     9     3
-2.8110000000e-07     1     5     9     4
 9.7679200000e-05     1     5     9     6
-7.7781800000e-05     1     5     9     7
-2.9211510000e-04     1     5     9     8
-2.6141500000e-05     1     5     9     9
 6.0402716800e-02     1     6     2     1
-4.3417065700e-02     1     6     2     2
 4.3335060000e-03     1     6     2     3
-1.7726300000e-05     1     6     2     4
-4.3512000000e-06     1     6     2     5
-1.6787130000e-04     1     6     2     7
-3.5939800000e-05     1     6     2     8
 8.6173671000e-03     1     6     2     9
 4.5334607000e-03     1     6     3     1
 4.9731559000e-03     1     6     3     2
 2.9919197000e-02     1     6     3     3
-4.1801000000e-06     1     6     3     4
-1.1888000000e-06     1     6     3     5
-6.0441550000e-04     1     6     3     7
-1.0609210000e-04     1     6     3     8
 2.5398803800e-02     1     6     3     9
-1.8601000000e-05     1     6     4     1
-1.8745200000e-05     1     6     4     2
-4.2299000000e-06     1     6     4     3
 2.9472287100e-02     1     6     4     4
-2.6000000000e-08     1     6     4     5
-2.5867572500e-02     1     6     4     7
 6.8605250000e-03     1     6     4     8
-5.8655840000e-04     1     6     4     9
-5.9591000000e-06     1     6     5     1
-3.1476000000e-06     1     6     5     2
-1.4034000000e-06     1     6     5     3
 4.7800000000e-08     1     6     5     4
 2.9472464100e-02     1     6     5     5
-6.8564857000e-03     1     6     5     7
-2.5872181400e-02     1     6     5     8
-2.7472100000e-04     1     6     5     9
-1.1333736180e-01     1     6     6     1
 7.3258335100e-02     1     6     6     2
-3.7143314000e-02     1     6     6     3
 1.4809080000e-04     1     6     6     4
 3.9016200000e-05     1     6     6     5
 2.2659100000e-05     1     6     6     7
 2.6456000000e-06     1     6     6     8
-1.4586867000e-03     1     6     6     9
-1.5105860000e-04     1     6     7     1
 1.2944640000e-04     1     6     7     2
-2.2118290000e-04     1     6     7     3
-9.6502984000e-03     1     6     7     4
-2.5569583000e-03     1     6     7     5
 1.6714959900e-02     1     6     7     7
-1.9240000000e-07     1     6     7     8
-4.9487200000e-05     1     6     7     9
-3.2440000000e-05     1     6     8     1
 2.8102900000e-05     1     6     8     2
-3.8685400000e-05     1     6     8     3
 2.5587897000e-03     1     6     8     4
-9.6529309000e-03     1     6     8     5
 4.5550000000e-07     1     6     8     7
 1.6709564700e-02     1     6     8     8
-9.8556000000e-06     1     6     8     9
 7.8218187000e-03     1     6     9     1
-6.9872064000e-03     1     6     9     2
 8.8587727000e-03     1     6     9     3
-2.0815470000e-04     1     6     9     4
-9.7679200000e-05     1     6     9     5
-5.1044300000e-05     1     6     9     7
-1.0113500000e-05     1     6     9     8
 2.0161440100e-02     1     6     9     9
-4.7777590000e-04     1     7     2     1
 1.2160290000e-04     1     7     2     2
-5.2388730000e-04     1     7     2     3
-2.0803694900e-02     1     7     2     4
-5.5148418000e-03     1     7     2     5
 1.6787130000e-04     1     7     2     6
 3.6530000000e-07     1     7     2     8
-8.0100000000e-08     1     7     2     9
 1.4890879000e-03     1     7     3     1
-1.2022555000e-03     1     7     3     2
 1.9751380000e-04     1     7     3     3
-1.9333410000e-04     1     7     3     4
-5.1537600000e-05     1     7     3     5
 6.0441550000e-04     1     7     3     6
-1.2970000000e-07     1     7     3     8
 6.8886000000e-06     1     7     3     9
 6.0553820300e-02     1     7     4     1
-4.9848855000e-02     1     7     4     2
 2.6357499000e-03     1     7     4     3
 1.2656880000e-04     1     7     4     4
-1.8923000000e-06     1     7     4     5
 2.5867572500e-02     1     7     4     6
-1.9523600000e-05     1     7     4     8
 2.0456942000e-03     1     7     4     9
 1.6049544700e-02     1     7     5     1
-1.3212088100e-02     1     7     5     2
 6.9862310000e-04     1     7     5     3
-1.7614000000e-06     1     7     5     4
 1.2708000000e-04     1     7     5     5
 6.8564857000e-03     1     7     5     6
 3.9305200000e-05     1     7     5     8
 5.4234240000e-04     1     7     5     9
-1.5105860000e-04     1     7     6     1
 2.9731770000e-04     1     7     6     2
 3.8323260000e-04     1     7     6     3
 1.6217274100e-02     1     7     6     4
 4.2995274000e-03     1     7     6     5
-2.2659100000e-05     1     7     6     6
-6.4790000000e-07     1     7     6     8
 1.5571000000e-06     1     7     6     9
-1.1790145210e-01     1     7     7     1
 7.9690687200e-02     1     7     7     2
-3.9676207700e-02     1     7     7     3
 1.8842360000e-04     1     7     7     4
 4.9310200000e-05     1     7     7     5
-1.6714959900e-02     1     7     7     6
-2.1781300000e-05     1     7     7     8
 4.9620390000e-03     1     7     7     9
-1.2910000000e-07     1     7     8     1
 1.6770000000e-07     1     7     8     2
 1.3900000000e-07     1     7     8     3
-1.0479600000e-05     1     7     8     4
 3.5538500000e-05     1     7     8     5
-4.5550000000e-07     1     7     8     6
 9.4711000000e-05     1     7     8     8
 1.3730000000e-07     1     7     8     9
 5.3393600000e-05     1     7     9     1
-2.6719500000e-05     1     7     9     2
-4.2815700000e-05     1     7     9     3
 2.9315740000e-04     1     7     9     4
 7.7781800000e-05     1     7     9     5
 5.1044300000e-05     1     7     9     6
 2.2860000000e-07     1     7     9     8
 8.7116300000e-05     1     7     9     9
-1.0359430000e-04     1     8     2     1
 2.6516300000e-05     1     8     2     2
-9.3973200000e-05     1     8     2     3
 5.5182451000e-03     1     8     2     4
-2.0807983000e-02     1     8     2     5
 3.5939800000e-05     1     8     2     6
-3.6530000000e-07     1     8     2     7
 7.9700000000e-08     1     8     2     9
 2.6575440000e-04     1     8     3     1
-2.1343100000e-04     1     8     3     2
 4.1854500000e-05     1     8     3     3
 5.3053400000e-05     1     8     3     4
-2.0092310000e-04     1     8     3     5
 1.0609210000e-04     1     8     3     6
 1.2970000000e-07     1     8     3     7
 2.0720000000e-07     1     8     3     9
-1.6058173300e-02     1     8     4     1
 1.3220131900e-02     1     8     4     2
-6.9739570000e-04     1     8     4     3
 3.1645600000e-05     1     8     4     4
 8.3580000000e-07     1     8     4     5
-6.8605250000e-03     1     8     4     6
 1.9523600000e-05     1     8     4     7
-5.4168190000e-04     1     8     4     9
 6.0559322500e-02     1     8     5     1
-4.9858203800e-02     1     8     5     2
 2.6281590000e-03     1     8     5     3
-1.1748600000e-05     1     8     5     4
 2.7165800000e-05     1     8     5     5
 2.5872181400e-02     1     8     5     6
-3.9305200000e-05     1     8     5     7
 2.0434051000e-03     1     8     5     9
-3.2440000000e-05     1     8     6     1
 6.4042700000e-05     1     8     6     2
 6.7406700000e-05     1     8     6     3
-4.3017353000e-03     1     8     6     4
 1.6219250500e-02     1     8     6     5
-2.6456000000e-06     1     8     6     6
 6.4790000000e-07     1     8     6     7
 2.5790000000e-07     1     8     6     9
-1.2910000000e-07     1     8     7     1
-1.9760000000e-07     1     8     7     2
 2.6870000000e-07     1     8     7     3
 9.0440000000e-06     1     8     7     4
-3.7667000000e-06     1     8     7     5
 1.9240000000e-07     1     8     7     6
 2.1781300000e-05     1     8     7     7
-9.1300000000e-08     1     8     7     9
-1.1788610670e-01     1     8     8     1
 7.9678205900e-02     1     8     8     2
-3.9676064300e-02     1     8     8     3
 1.5582630000e-04     1     8     8     4
 4.6972300000e-05     1     8     8     5
-1.6709564700e-02     1     8     8     6
-9.4711000000e-05     1     8     8     7
 4.9637789000e-03     1     8     8     9
 8.7606000000e-06     1     8     9     1
-3.2173000000e-06     1     8     9     2
-8.8031000000e-06     1     8     9     3
-7.7233200000e-05     1     8     9     4
 2.9211510000e-04     1     8     9     5
 1.0113500000e-05     1     8     9     6
-2.2860000000e-07     1     8     9     7
 2.0000500000e-05     1     8     9     9
 2.4173614700e-02     1     9     2     1
-6.2977241000e-03     1     9     2     2
 2.2229301000e-02     1     9     2     3
-4.7587920000e-04     1     9     2     4
-2.2082810000e-04     1     9     2     5
-8.6173671000e-03     1     9     2     6
 8.0100000000e-08     1     9     2     7
-7.9700000000e-08     1     9     2     8
-6.3339146300e-02     1     9     3     1
 5.0614739300e-02     1     9     3     2
-1.0386152600e-02     1     9     3     3
 2.3215900000e-05     1     9     3     4
 9.3246000000e-06     1     9     3     5
-2.5398803800e-02     1     9     3     6
-6.8886000000e-06     1     9     3     7
-2.0720000000e-07     1     9     3     8
 1.3879315000e-03     1     9     4     1
-1.1306654000e-03     1     9     4     2
 7.5403900000e-05     1     9     4     3
-6.6555269000e-03     1     9     4     4
-1.4400000000e-07     1     9     4     5
 5.8655840000e-04     1     9     4     6
-2.0456942000e-03     1     9     4     7
 5.4168190000e-04     1     9     4     8
 6.4642470000e-04     1     9     5     1
-5.2699220000e-04     1     9     5     2
 3.5971000000e-05     1     9     5     3
-4.2510000000e-07     1     9     5     4
-6.6550522000e-03     1     9     5     5
 2.7472100000e-04     1     9     5     6
-5.4234240000e-04     1     9     5     7
-2.0434051000e-03     1     9     5     8
 7.8218187000e-03     1     9     6     1
-1.5604573500e-02     1     9     6     2
-1.6540031100e-02     1     9     6     3
 3.7840370000e-04     1     9     6     4
 1.7704180000e-04     1     9     6     5
 1.4586867000e-03     1     9     6     6
-1.5571000000e-06     1     9     6     7
-2.5790000000e-07     1     9     6     8
 5.3393600000e-05     1     9     7     1
-2.6639400000e-05     1     9     7     2
-4.9704300000e-05     1     9     7     3
-1.7525368000e-03     1     9     7     4
-4.6456060000e-04     1     9     7     5
 4.9487200000e-05     1     9     7     6
-4.9620390000e-03     1     9     7     7
 9.1300000000e-08     1     9     7     8
 8.7606000000e-06     1     9     8     1
-3.2970000000e-06     1     9     8     2
-9.0103000000e-06     1     9     8     3
 4.6444870000e-04     1     9     8     4
-1.7512900000e-03     1     9     8     5
 9.8556000000e-06     1     9     8     6
-1.3730000000e-07     1     9     8     7
-4.9637789000e-03     1     9     8     8
-1.2376009180e-01     1     9     9     1
 8.3318467300e-02     1     9     9     2
-3.7941485800e-02     1     9     9     3
 1.2602480000e-04     1     9     9     4
 2.6141500000e-05     1     9     9     5
-2.0161440100e-02     1     9     9     6
-8.7116300000e-05     1     9     9     7
-2.0000500000e-05     1     9     9     8
-1.2899966600e-02     2     1     1     2
 3.9564989000e-03     2     1     1     3
-1.9621800000e-05     2     1     1     4
-7.9856000000e-06     2     1     1     5
 6.0402716800e-02     2     1     1     6
-4.7777590000e-04     2     1     1     7
-1.0359430000e-04     2     1     1     8
 2.4173614700e-02     2     1     1     9
-2.5543493600e-02     2     1     3     2
-8.1801368000e-02     2     1     3     3
 1.0303000000e-05     2     1     3     4
 2.6421000000e-06     2     1     3     5
-6.3964990000e-04     2     1     3     6
 6.7836820000e-04     2     1     3     7
 1.1945780000e-04     2     1     3     8
-2.8385438300e-02     2     1     3     9
 9.9694300000e-05     2     1     4     2
 1.0546400000e-05     2     1     4     3
-8.1421055400e-02     2     1     4     4
-2.0710000000e-07     2     1     4     5
 1.0189000000e-06     2     1     4     6
 2.9045160100e-02     2     1     4     7
-7.7018868000e-03     2     1     4     8
 6.5478620000e-04     2     1     4     9
 2.3299200000e-05     2     1     5     2
 2.9473000000e-06     2     1     5     3
 1.8020000000e-07     2     1     5     4
-8.1421422700e-02     2     1     5     5
-1.2036000000e-06     2     1     5     6
 7.6972463000e-03     2     1     5     7
 2.9050220800e-02     2     1     5     8
 3.0616410000e-04     2     1     5     9
 4.3417065700e-02     2     1     6     2
-4.9731559000e-03     2     1     6     3
 1.8745200000e-05     2     1     6     4
 3.1476000000e-06     2     1     6     5
-7.3258335100e-02     2     1     6     6
-1.2944640000e-04     2     1     6     7
-2.8102900000e-05     2     1     6     8
 6.9872064000e-03     2     1     6     9
-1.2160290000e-04     2     1     7     2
 1.2022555000e-03     2     1     7     3
 4.9848855000e-02     2     1     7     4
 1.3212088100e-02     2     1     7     5
-2.9731770000e-04     2     1     7     6
-7.9690687200e-02     2     1     7     7
-1.6770000000e-07     2     1     7     8
 2.6719500000e-05     2     1     7     9
-2.6516300000e-05     2     1     8     2
 2.1343100000e-04     2     1     8     3
-1.3220131900e-02     2     1     8     4
 4.9858203800e-02     2     1     8     5
-6.4042700000e-05     2     1     8     6
 1.9760000000e-07     2     1     8     7
-7.9678205900e-02     2     1     8     8
 3.2173000000e-06     2     1     8     9
 6.2977241000e-03     2     1     9     2
-5.0614739300e-02     2     1     9     3
 1.1306654000e-03     2     1     9     4
 5.2699220000e-04     2     1     9     5
 1.5604573500e-02     2     1     9     6
 2.6639400000e-05     2     1     9     7
 3.2970000000e-06     2     1     9     8
-8.3318467300e-02     2     1     9     9
 1.2899966600e-02     2     2     1     1
 2.5543493600e-02     2     2     1     3
-9.9694300000e-05     2     2     1     4
-2.3299200000e-05     2     2     1     5
-4.3417065700e-02     2     2     1     6
 1.2160290000e-04     2     2     1     7
 2.6516300000e-05     2     2     1     8
-6.2977241000e-03     2     2     1     9
 2.5543493600e-02     2     2     3     1
 6.8932005200e-02     2     2     3     3
 7.0193000000e-06     2     2     3     4
 2.6434000000e-06     2     2     3     5
-1.7628711500e-02     2     2     3     6
-9.3446310000e-04     2     2     3     7
-1.6584060000e-04     2     2     3     8
 3.9745958600e-02     2     2     3     9
-9.9694300000e-05     2     2     4     1
 7.0193000000e-06     2     2     4     3
 7.2402200900e-02     2     2     4     4
-7.9000000000e-09     2     2     4     5
 7.1468900000e-05     2     2     4     6
-3.8361158100e-02     2     2     4     7
 1.0172485900e-02     2     2     4     8
-8.7935090000e-04     2     2     4     9
-2.3299200000e-05     2     2     5     1
 2.6434000000e-06     2     2     5     3
-7.9000000000e-09     2     2     5     4
 7.2402680600e-02     2     2     5     5
 2.1303500000e-05     2     2     5     6
-1.0167624200e-02     2     2     5     7
-3.8361557000e-02     2     2     5     8
-4.1093660000e-04     2     2     5     9
-4.3417065700e-02     2     2     6     1
-1.7628711500e-02     2     2     6     3
 7.1468900000e-05     2     2     6     4
 2.1303500000e-05     2     2     6     5
 3.4545514700e-02     2     2     6     6
 6.4133700000e-05     2     2     6     7
 1.3234800000e-05     2     2     6     8
-3.2204230000e-03     2     2     6     9
 1.2160290000e-04     2     2     7     1
-9.3446310000e-04     2     2     7     3
-3.8361158100e-02     2     2     7     4
-1.0167624200e-02     2     2     7     5
 6.4133700000e-05     2     2     7     6
 6.0766353700e-02     2     2     7     7
 2.2090000000e-07     2     2     7     8
-5.4499200000e-05     2     2     7     9
 2.6516300000e-05     2     2     8     1
-1.6584060000e-04     2     2     8     3
 1.0172485900e-02     2     2     8     4
-3.8361557000e-02     2     2     8     5
 1.3234800000e-05     2     2     8     6
 2.2090000000e-07     2     2     8     7
 6.0758509400e-02     2     2     8     8
-1.0499700000e-05     2     2     8     9
-6.2977241000e-03     2     2     9     1
 3.9745958600e-02     2     2     9     3
-8.7935090000e-04     2     2     9     4
-4.1093660000e-04     2     2     9     5
-3.2204230000e-03     2     2     9     6
-5.4499200000e-05     2     2     9     7
-1.0499700000e-05     2     2     9     8
 6.5319776200e-02     2     2     9     9
-3.9564989000e-03     2     3     1     1
-2.5543493600e-02     2     3     1     2
-2.4340000000e-07     2     3     1     4
-3.0520000000e-07     2     3     1     5
 4.3335060000e-03     2     3     1     6
-5.2388730000e-04     2     3     1     7
-9.3973200000e-05     2     3     1     8
 2.2229301000e-02     2     3     1     9