&FCI NORB=  9,NELEC=  2,MS2=0,
 ORBSYM=1,1,1,1,1,1,1,1,1
 ISYM=1,
&END
-4.7516399600e-02     1     1     2     2
-4.2046190900e-02     1     1     2     3
-1.7366370900e-02     1     1     2     4
 9.5347000000e-06     1     1     2     5
 2.1226400000e-05     1     1     2     6
 1.0640500000e-02     1     1     2     7
 2.0120000000e-06     1     1     2     8
 1.2184000000e-06     1     1     2     9
-4.2046190900e-02     1     1     3     2
 7.6229612300e-02     1     1     3     3
-2.9225610000e-03     1     1     3     4
 1.2098000000e-06     1     1     3     5
 3.5313000000e-06     1     1     3     6
-1.2115742000e-03     1     1     3     7
 3.9216600000e-05     1     1     3     8
-3.3513300000e-05     1     1     3     9
-1.7366370900e-02     1     1     4     2
-2.9225610000e-03     1     1     4     3
 8.8303822000e-02     1     1     4     4
 1.5843000000e-06     1     1     4     5
 5.1738000000e-06     1     1     4     6
 7.0401863200e-02     1     1     4     7
 8.9160600000e-05     1     1     4     8
-3.7133700000e-05     1     1     4     9
 9.5347000000e-06     1     1     5     2
 1.2098000000e-06     1     1     5     3
 1.5843000000e-06     1     1     5     4
 9.3318354300e-02     1     1     5     5
-3.1870000000e-07     1     1     5     6
-2.7654900000e-05     1     1     5     7
-3.4383359000e-03     1     1     5     8
-6.7642049800e-02     1     1     5     9
 2.1226400000e-05     1     1     6     2
 3.5313000000e-06     1     1     6     3
 5.1738000000e-06     1     1     6     4
-3.1870000000e-07     1     1     6     5
 9.3315821300e-02     1     1     6     6
-8.8738200000e-05     1     1     6     7
 6.7647716300e-02     1     1     6     8
-3.4382823000e-03     1     1     6     9
 1.0640500000e-02     1     1     7     2
-1.2115742000e-03     1     1     7     3
 7.0401863200e-02     1     1     7     4
-2.7654900000e-05     1     1     7     5
-8.8738200000e-05     1     1     7     6
 1.2131843690e-01     1     1     7     7
 2.6494000000e-06     1     1     7     8
-1.4760000000e-07     1     1     7     9
 2.0120000000e-06     1     1     8     2
 3.9216600000e-05     1     1     8     3
 8.9160600000e-05     1     1     8     4
-3.4383359000e-03     1     1     8     5
 6.7647716300e-02     1     1     8     6
 2.6494000000e-06     1     1     8     7
 1.3124405130e-01     1     1     8     8
 1.3167000000e-06     1     1     8     9
 1.2184000000e-06     1     1     9     2
-3.3513300000e-05     1     1     9     3
-3.7133700000e-05     1     1     9     4
-6.7642049800e-02     1     1     9     5
-3.4382823000e-03     1     1     9     6
-1.4760000000e-07     1     1     9     7
 1.3167000000e-06     1     1     9     8
 1.3123638510e-01     1     1     9     9
 4.7516399600e-02     1     2     2     1
-1.8747312300e-02     1     2     2     3
-2.4363416400e-02     1     2     2     4
 1.0918400000e-05     1     2     2     5
 2.3349600000e-05     1     2     2     6
 5.6102339000e-03     1     2     2     7
 2.1700000000e-07     1     2     2     8
 1.6741000000e-06     1     2     2     9
 4.2046190900e-02     1     2     3     1
 7.0517102500e-02     1     2     3     3
-8.6677975000e-03     1     2     3     4
 3.9628000000e-06     1     2     3     5
 8.8171000000e-06     1     2     3     6
 7.4980034000e-03     1     2     3     7
 2.8685800000e-05     1     2     3     8
-2.1227400000e-05     1     2     3     9
 1.7366370900e-02     1     2     4     1
-1.1578493200e-02     1     2     4     3
 8.1298711100e-02     1     2     4     4
 3.6017000000e-06     1     2     4     5
 8.7813000000e-06     1     2     4     6
 4.9713315500e-02     1     2     4     7
 5.8637100000e-05     1     2     4     8
-2.2359000000e-05     1     2     4     9
-9.5347000000e-06     1     2     5     1
 5.1792000000e-06     1     2     5     3
 3.4296000000e-06     1     2     5     4
 8.8044559900e-02     1     2     5     5
-2.6360000000e-07     1     2     5     6
-2.0388800000e-05     1     2     5     7
-2.2943320000e-03     1     2     5     8
-4.5143138200e-02     1     2     5     9
-2.1226400000e-05     1     2     6     1
 1.1337400000e-05     1     2     6     3
 7.8922000000e-06     1     2     6     4
-9.9000000000e-08     1     2     6     5
 8.8043270400e-02     1     2     6     6
-6.3186600000e-05     1     2     6     7
 4.5144123500e-02     1     2     6     8
-2.2946317000e-03     1     2     6     9
-1.0640500000e-02     1     2     7     1
 7.8612565000e-03     1     2     7     3
 3.5373892900e-02     1     2     7     4
-1.4611700000e-05     1     2     7     5
-4.6192300000e-05     1     2     7     6
 9.4815267400e-02     1     2     7     7
-1.8148000000e-06     1     2     7     8
 1.6174000000e-06     1     2     7     9
-2.0120000000e-06     1     2     8     1
 2.3705900000e-05     1     2     8     3
 4.3151000000e-05     1     2     8     4
-1.6580594000e-03     1     2     8     5
 3.2624904300e-02     1     2     8     6
-1.2633000000e-06     1     2     8     7
 1.0485893230e-01     1     2     8     8
 9.3710000000e-07     1     2     8     9
-1.2184000000e-06     1     2     9     1
-1.7228900000e-05     1     2     9     3
-1.6843700000e-05     1     2     9     4
-3.2623900700e-02     1     2     9     5
-1.6583416000e-03     1     2     9     6
 9.0180000000e-07     1     2     9     7
 9.7840000000e-07     1     2     9     8
 1.0485257430e-01     1     2     9     9
 4.2046190900e-02     1     3     2     1
 1.8747312300e-02     1     3     2     2
 2.9106957000e-03     1     3     2     4
-1.2164000000e-06     1     3     2     5
-2.5203000000e-06     1     3     2     6
-3.6325310000e-04     1     3     2     7
 4.9799000000e-06     1     3     2     8
-3.9985000000e-06     1     3     2     9
-7.6229612300e-02     1     3     3     1
-7.0517102500e-02     1     3     3     2
 2.6555449000e-03     1     3     3     4
-4.2336000000e-06     1     3     3     5
-9.5512000000e-06     1     3     3     6
 1.4011499000e-02     1     3     3     7
-1.6894500000e-05     1     3     3     8
 1.7009600000e-05     1     3     3     9
 2.9225610000e-03     1     3     4     1
 1.1578493200e-02     1     3     4     2
-5.4558522700e-02     1     3     4     4
-6.2490000000e-07     1     3     4     5
-1.6317000000e-06     1     3     4     6
-3.4222791400e-02     1     3     4     7
-4.9930800000e-05     1     3     4     8
 2.1531900000e-05     1     3     4     9
-1.2098000000e-06     1     3     5     1
-5.1792000000e-06     1     3     5     2
-7.1510000000e-07     1     3     5     4
-5.6854697200e-02     1     3     5     5
 8.2400000000e-08     1     3     5     6
 1.3105100000e-05     1     3     5     7
 1.8516867000e-03     1     3     5     8
 3.6418165000e-02     1     3     5     9
-3.5313000000e-06     1     3     6     1
-1.1337400000e-05     1     3     6     2
-2.0955000000e-06     1     3     6     4
 9.3000000000e-08     1     3     6     5
-5.6853982300e-02     1     3     6     6
 4.3207300000e-05     1     3     6     7
-3.6422934300e-02     1     3     6     8
 1.8510927000e-03     1     3     6     9
 1.2115742000e-03     1     3     7     1
-7.8612565000e-03     1     3     7     2
-1.0959655100e-02     1     3     7     4
 4.4286000000e-06     1     3     7     5
 1.4022100000e-05     1     3     7     6
-5.5390427300e-02     1     3     7     7
-2.6997000000e-06     1     3     7     8
 1.9300000000e-06     1     3     7     9
-3.9216600000e-05     1     3     8     1
-2.3705900000e-05     1     3     8     2
-1.1630000000e-05     1     3     8     4
 4.8638180000e-04     1     3     8     5
-9.5777990000e-03     1     3     8     6
-4.9840000000e-07     1     3     8     7
-5.7687134800e-02     1     3     8     8
-2.2100000000e-07     1     3     8     9
 3.3513300000e-05     1     3     9     1
 1.7228900000e-05     1     3     9     2
 4.5732000000e-06     1     3     9     4
 9.5770506000e-03     1     3     9     5
 4.8668640000e-04     1     3     9     6
-3.8870000000e-07     1     3     9     7
-3.1570000000e-07     1     3     9     8
-5.7683767600e-02     1     3     9     9
 1.7366370900e-02     1     4     2     1
 2.4363416400e-02     1     4     2     2
-2.9106957000e-03     1     4     2     3
 1.7210000000e-07     1     4     2     5
 8.8910000000e-07     1     4     2     6
 1.4339422600e-02     1     4     2     7
 1.5486100000e-05     1     4     2     8
-5.5153000000e-06     1     4     2     9
 2.9225610000e-03     1     4     3     1
 8.6677975000e-03     1     4     3     2
-2.6555449000e-03     1     4     3     3
 9.0200000000e-08     1     4     3     5
 4.6380000000e-07     1     4     3     6
-2.3263136300e-02     1     4     3     7
-3.8300800000e-05     1     4     3     8
 1.6958700000e-05     1     4     3     9
-8.8303822000e-02     1     4     4     1
-8.1298711100e-02     1     4     4     2
 5.4558522700e-02     1     4     4     3
-3.9925000000e-06     1     4     4     5
-8.8009000000e-06     1     4     4     6
-9.0143896000e-03     1     4     4     7
-1.4325500000e-05     1     4     4     8
 5.9840000000e-07     1     4     4     9
-1.5843000000e-06     1     4     5     1
-3.4296000000e-06     1     4     5     2
 7.1510000000e-07     1     4     5     3
-9.8779610000e-04     1     4     5     5
 7.6400000000e-08     1     4     5     6
 9.9473000000e-06     1     4     5     7
 6.6078520000e-04     1     4     5     8
 1.3019635100e-02     1     4     5     9
-5.1738000000e-06     1     4     6     1
-7.8922000000e-06     1     4     6     2
 2.0955000000e-06     1     4     6     3
 4.4800000000e-08     1     4     6     5
-9.8755180000e-04     1     4     6     6
 2.6282300000e-05     1     4     6     7
-1.3012020600e-02     1     4     6     8
 6.6165060000e-04     1     4     6     9
-7.0401863200e-02     1     4     7     1
-3.5373892900e-02     1     4     7     2
 1.0959655100e-02     1     4     7     3
-7.2690000000e-07     1     4     7     5
-6.9670000000e-07     1     4     7     6
 6.0183738000e-03     1     4     7     7
 7.3435000000e-06     1     4     7     8
-6.1997000000e-06     1     4     7     9
-8.9160600000e-05     1     4     8     1
-4.3151000000e-05     1     4     8     2
 1.1630000000e-05     1     4     8     3
 9.9404000000e-05     1     4     8     5
-1.9604964000e-03     1     4     8     6
 3.7896000000e-06     1     4     8     7
 2.5820645000e-03     1     4     8     8
-3.4120000000e-07     1     4     8     9
 3.7133700000e-05     1     4     9     1
 1.6843700000e-05     1     4     9     2
-4.5732000000e-06     1     4     9     3
 1.9605355000e-03     1     4     9     5
 9.9616800000e-05     1     4     9     6
-9.5330000000e-07     1     4     9     7
-6.4900000000e-08     1     4     9     8
 2.5844200000e-03     1     4     9     9
-9.5347000000e-06     1     5     2     1
-1.0918400000e-05     1     5     2     2
 1.2164000000e-06     1     5     2     3
-1.7210000000e-07     1     5     2     4
-1.6460000000e-07     1     5     2     6
-5.7771000000e-06     1     5     2     7
-6.3627260000e-04     1     5     2     8
-1.2519237500e-02     1     5     2     9
-1.2098000000e-06     1     5     3     1
-3.9628000000e-06     1     5     3     2
 4.2336000000e-06     1     5     3     3
-9.0200000000e-08     1     5     3     4
-1.0600000000e-08     1     5     3     6
 8.6765000000e-06     1     5     3     7
 1.3653049000e-03     1     5     3     8
 2.6841114400e-02     1     5     3     9
-1.5843000000e-06     1     5     4     1
-3.6017000000e-06     1     5     4     2
 6.2490000000e-07     1     5     4     3
 3.9925000000e-06     1     5     4     4
 3.1600000000e-08     1     5     4     6
 1.0674200000e-05     1     5     4     7
 5.6138120000e-04     1     5     4     8
 1.1059099600e-02     1     5     4     9
-9.3318354300e-02     1     5     5     1
-8.8044559900e-02     1     5     5     2
 5.6854697200e-02     1     5     5     3
 9.8779610000e-04     1     5     5     4
-8.9729000000e-06     1     5     5     6
 1.0375415600e-02     1     5     5     7
 8.9306000000e-06     1     5     5     8
-1.6907900000e-05     1     5     5     9
 3.1870000000e-07     1     5     6     1
 9.9000000000e-08     1     5     6     2
-9.3000000000e-08     1     5     6     3
-4.4800000000e-08     1     5     6     4
 4.0851000000e-06     1     5     6     6
 4.4100000000e-08     1     5     6     7
 7.9500000000e-06     1     5     6     8
-1.3685600000e-05     1     5     6     9
 2.7654900000e-05     1     5     7     1
 1.4611700000e-05     1     5     7     2
-4.4286000000e-06     1     5     7     3
 7.2690000000e-07     1     5     7     4
-4.3700000000e-08     1     5     7     6
 6.5760000000e-07     1     5     7     7
 3.8155700000e-05     1     5     7     8
 7.4980220000e-04     1     5     7     9
 3.4383359000e-03     1     5     8     1
 1.6580594000e-03     1     5     8     2
-4.8638180000e-04     1     5     8     3
-9.9404000000e-05     1     5     8     4
 1.6183000000e-06     1     5     8     6
-2.6763940000e-04     1     5     8     7
 1.9641000000e-06     1     5     8     8
 3.4480000000e-07     1     5     8     9
 6.7642049800e-02     1     5     9     1
 3.2623900700e-02     1     5     9     2
-9.5770506000e-03     1     5     9     3
-1.9605355000e-03     1     5     9     4
 3.2248000000e-06     1     5     9     6
-5.2720656000e-03     1     5     9     7
-9.8505000000e-06     1     5     9     8
 9.7570000000e-06     1     5     9     9
-2.1226400000e-05     1     6     2     1
-2.3349600000e-05     1     6     2     2
 2.5203000000e-06     1     6     2     3
-8.8910000000e-07     1     6     2     4
 1.6460000000e-07     1     6     2     5
-1.6994300000e-05     1     6     2     7
 1.2519219200e-02     1     6     2     8
-6.3629010000e-04     1     6     2     9
-3.5313000000e-06     1     6     3     1
-8.8171000000e-06     1     6     3     2
 9.5512000000e-06     1     6     3     3
-4.6380000000e-07     1     6     3     4
 1.0600000000e-08     1     6     3     5
 2.9185200000e-05     1     6     3     7
-2.6845135300e-02     1     6     3     8
 1.3644063000e-03     1     6     3     9
-5.1738000000e-06     1     6     4     1
-8.7813000000e-06     1     6     4     2
 1.6317000000e-06     1     6     4     3
 8.8009000000e-06     1     6     4     4
-3.1600000000e-08     1     6     4     5
 2.6979000000e-05     1     6     4     7
-1.1051524200e-02     1     6     4     8
 5.6203380000e-04     1     6     4     9
 3.1870000000e-07     1     6     5     1
 2.6360000000e-07     1     6     5     2
-8.2400000000e-08     1     6     5     3
-7.6400000000e-08     1     6     5     4
 8.9729000000e-06     1     6     5     5
 8.7800000000e-08     1     6     5     7
 6.3317000000e-06     1     6     5     8
-1.6910400000e-05     1     6     5     9
-9.3315821300e-02     1     6     6     1
-8.8043270400e-02     1     6     6     2
 5.6853982300e-02     1     6     6     3
 9.8755180000e-04     1     6     6     4
-4.0851000000e-06     1     6     6     5
 1.0376640400e-02     1     6     6     7
 3.6217400000e-05     1     6     6     8
-4.9392000000e-06     1     6     6     9
 8.8738200000e-05     1     6     7     1
 4.6192300000e-05     1     6     7     2
-1.4022100000e-05     1     6     7     3
 6.9670000000e-07     1     6     7     4
 4.3700000000e-08     1     6     7     5
-3.3710000000e-07     1     6     7     7
-7.4911380000e-04     1     6     7     8
 3.8200700000e-05     1     6     7     9
-6.7647716300e-02     1     6     8     1
-3.2624904300e-02     1     6     8     2
 9.5777990000e-03     1     6     8     3
 1.9604964000e-03     1     6     8     4
-1.6183000000e-06     1     6     8     5
 5.2708203000e-03     1     6     8     7
 1.6755400000e-05     1     6     8     8
-6.4781000000e-06     1     6     8     9
 3.4382823000e-03     1     6     9     1
 1.6583416000e-03     1     6     9     2
-4.8668640000e-04     1     6     9     3
-9.9616800000e-05     1     6     9     4
-3.2248000000e-06     1     6     9     5
-2.6792710000e-04     1     6     9     7
-1.0055000000e-06     1     6     9     8
 6.2748000000e-06     1     6     9     9
-1.0640500000e-02     1     7     2     1
-5.6102339000e-03     1     7     2     2
 3.6325310000e-04     1     7     2     3
-1.4339422600e-02     1     7     2     4
 5.7771000000e-06     1     7     2     5
 1.6994300000e-05     1     7     2     6
-5.5150000000e-07     1     7     2     8
 7.1560000000e-07     1     7     2     9
 1.2115742000e-03     1     7     3     1
-7.4980034000e-03     1     7     3     2
-1.4011499000e-02     1     7     3     3
 2.3263136300e-02     1     7     3     4
-8.6765000000e-06     1     7     3     5
-2.9185200000e-05     1     7     3     6
-2.2013000000e-06     1     7     3     8
 2.3187000000e-06     1     7     3     9
-7.0401863200e-02     1     7     4     1
-4.9713315500e-02     1     7     4     2
 3.4222791400e-02     1     7     4     3
 9.0143896000e-03     1     7     4     4
-1.0674200000e-05     1     7     4     5
-2.6979000000e-05     1     7     4     6
 3.5539000000e-06     1     7     4     8
-5.2464000000e-06     1     7     4     9
 2.7654900000e-05     1     7     5     1
 2.0388800000e-05     1     7     5     2
-1.3105100000e-05     1     7     5     3
-9.9473000000e-06     1     7     5     4
-1.0375415600e-02     1     7     5     5
-8.7800000000e-08     1     7     5     6
 3.0579510000e-04     1     7     5     8
 6.0218678000e-03     1     7     5     9
 8.8738200000e-05     1     7     6     1
 6.3186600000e-05     1     7     6     2
-4.3207300000e-05     1     7     6     3
-2.6282300000e-05     1     7     6     4
-4.4100000000e-08     1     7     6     5
-1.0376640400e-02     1     7     6     6
-6.0199341000e-03     1     7     6     8
 3.0612780000e-04     1     7     6     9
-1.2131843690e-01     1     7     7     1
-9.4815267400e-02     1     7     7     2
 5.5390427300e-02     1     7     7     3
-6.0183738000e-03     1     7     7     4
-6.5760000000e-07     1     7     7     5
 3.3710000000e-07     1     7     7     6
 6.0749000000e-06     1     7     7     8
-3.4859000000e-06     1     7     7     9
-2.6494000000e-06     1     7     8     1
 1.2633000000e-06     1     7     8     2
 4.9840000000e-07     1     7     8     3
-3.7896000000e-06     1     7     8     4
 2.6763940000e-04     1     7     8     5
-5.2708203000e-03     1     7     8     6
-6.7699939000e-03     1     7     8     8
 9.0600000000e-08     1     7     8     9
 1.4760000000e-07     1     7     9     1
-9.0180000000e-07     1     7     9     2
 3.8870000000e-07     1     7     9     3
 9.5330000000e-07     1     7     9     4
 5.2720656000e-03     1     7     9     5
 2.6792710000e-04     1     7     9     6
 2.8000000000e-09     1     7     9     8
-6.7698006000e-03     1     7     9     9
-2.0120000000e-06     1     8     2     1
-2.1700000000e-07     1     8     2     2
-4.9799000000e-06     1     8     2     3
-1.5486100000e-05     1     8     2     4
 6.3627260000e-04     1     8     2     5
-1.2519219200e-02     1     8     2     6
 5.5150000000e-07     1     8     2     7
-4.1300000000e-08     1     8     2     9
-3.9216600000e-05     1     8     3     1
-2.8685800000e-05     1     8     3     2
 1.6894500000e-05     1     8     3     3
 3.8300800000e-05     1     8     3     4
-1.3653049000e-03     1     8     3     5
 2.6845135300e-02     1     8     3     6
 2.2013000000e-06     1     8     3     7
 9.4700000000e-08     1     8     3     9
-8.9160600000e-05     1     8     4     1
-5.8637100000e-05     1     8     4     2
 4.9930800000e-05     1     8     4     3
 1.4325500000e-05     1     8     4     4
-5.6138120000e-04     1     8     4     5
 1.1051524200e-02     1     8     4     6
-3.5539000000e-06     1     8     4     7
-2.7630000000e-07     1     8     4     9
 3.4383359000e-03     1     8     5     1
 2.2943320000e-03     1     8     5     2
-1.8516867000e-03     1     8     5     3
-6.6078520000e-04     1     8     5     4
-8.9306000000e-06     1     8     5     5
-6.3317000000e-06     1     8     5     6
-3.0579510000e-04     1     8     5     7
 1.0195300000e-05     1     8     5     9
-6.7647716300e-02     1     8     6     1
-4.5144123500e-02     1     8     6     2
 3.6422934300e-02     1     8     6     3
 1.3012020600e-02     1     8     6     4
-7.9500000000e-06     1     8     6     5
-3.6217400000e-05     1     8     6     6
 6.0199341000e-03     1     8     6     7
-5.4726000000e-06     1     8     6     9
-2.6494000000e-06     1     8     7     1
 1.8148000000e-06     1     8     7     2
 2.6997000000e-06     1     8     7     3
-7.3435000000e-06     1     8     7     4
-3.8155700000e-05     1     8     7     5
 7.4911380000e-04     1     8     7     6
-6.0749000000e-06     1     8     7     7
 8.7800000000e-08     1     8     7     9
-1.3124405130e-01     1     8     8     1
-1.0485893230e-01     1     8     8     2
 5.7687134800e-02     1     8     8     3
-2.5820645000e-03     1     8     8     4
-1.9641000000e-06     1     8     8     5
-1.6755400000e-05     1     8     8     6
 6.7699939000e-03     1     8     8     7
-3.3486000000e-06     1     8     8     9
-1.3167000000e-06     1     8     9     1
-9.7840000000e-07     1     8     9     2
 3.1570000000e-07     1     8     9     3
 6.4900000000e-08     1     8     9     4
 9.8505000000e-06     1     8     9     5
 1.0055000000e-06     1     8     9     6
-2.8000000000e-09     1     8     9     7
-6.4077000000e-06     1     8     9     9
-1.2184000000e-06     1     9     2     1
-1.6741000000e-06     1     9     2     2
 3.9985000000e-06     1     9     2     3
 5.5153000000e-06     1     9     2     4
 1.2519237500e-02     1     9     2     5
 6.3629010000e-04     1     9     2     6
-7.1560000000e-07     1     9     2     7
 4.1300000000e-08     1     9     2     8
 3.3513300000e-05     1     9     3     1
 2.1227400000e-05     1     9     3     2
-1.7009600000e-05     1     9     3     3
-1.6958700000e-05     1     9     3     4
-2.6841114400e-02     1     9     3     5
-1.3644063000e-03     1     9     3     6
-2.3187000000e-06     1     9     3     7
-9.4700000000e-08     1     9     3     8
 3.7133700000e-05     1     9     4     1
 2.2359000000e-05     1     9     4     2
-2.1531900000e-05     1     9     4     3
-5.9840000000e-07     1     9     4     4
-1.1059099600e-02     1     9     4     5
-5.6203380000e-04     1     9     4     6
 5.2464000000e-06     1     9     4     7
 2.7630000000e-07     1     9     4     8
 6.7642049800e-02     1     9     5     1
 4.5143138200e-02     1     9     5     2
-3.6418165000e-02     1     9     5     3
-1.3019635100e-02     1     9     5     4
 1.6907900000e-05     1     9     5     5
 1.6910400000e-05     1     9     5     6
-6.0218678000e-03     1     9     5     7
-1.0195300000e-05     1     9     5     8
 3.4382823000e-03     1     9     6     1
 2.2946317000e-03     1     9     6     2
-1.8510927000e-03     1     9     6     3
-6.6165060000e-04     1     9     6     4
 1.3685600000e-05     1     9     6     5
 4.9392000000e-06     1     9     6     6
-3.0612780000e-04     1     9     6     7
 5.4726000000e-06     1     9     6     8
 1.4760000000e-07     1     9     7     1
-1.6174000000e-06     1     9     7     2
-1.9300000000e-06     1     9     7     3
 6.1997000000e-06     1     9     7     4
-7.4980220000e-04     1     9     7     5
-3.8200700000e-05     1     9     7     6
 3.4859000000e-06     1     9     7     7
-8.7800000000e-08     1     9     7     8
-1.3167000000e-06     1     9     8     1
-9.3710000000e-07     1     9     8     2
 2.2100000000e-07     1     9     8     3
 3.4120000000e-07     1     9     8     4
-3.4480000000e-07     1     9     8     5
 6.4781000000e-06     1     9     8     6
-9.0600000000e-08     1     9     8     7
 3.3486000000e-06     1     9     8     8
-1.3123638510e-01     1     9     9     1
-1.0485257430e-01     1     9     9     2
 5.7683767600e-02     1     9     9     3
-2.5844200000e-03     1     9     9     4
-9.7570000000e-06     1     9     9     5
-6.2748000000e-06     1     9     9     6
 6.7698006000e-03     1     9     9     7
 6.4077000000e-06     1     9     9     8
 4.7516399600e-02     2     1     1     2
 4.2046190900e-02     2     1     1     3
 1.7366370900e-02     2     1     1     4
-9.5347000000e-06     2     1     1     5
-2.1226400000e-05     2     1     1     6
-1.0640500000e-02     2     1     1     7
-2.0120000000e-06     2     1     1     8
-1.2184000000e-06     2     1     1     9
-1.8747312300e-02     2     1     3     2
 7.0517102500e-02     2     1     3     3
-1.1578493200e-02     2     1     3     4
 5.1792000000e-06     2     1     3     5
 1.1337400000e-05     2     1     3     6
 7.8612565000e-03     2     1     3     7
 2.3705900000e-05     2     1     3     8
-1.7228900000e-05     2     1     3     9
-2.4363416400e-02     2     1     4     2
-8.6677975000e-03     2     1     4     3
 8.1298711100e-02     2     1     4     4
 3.4296000000e-06     2     1     4     5
 7.8922000000e-06     2     1     4     6
 3.5373892900e-02     2     1     4     7
 4.3151000000e-05     2     1     4     8
-1.6843700000e-05     2     1     4     9
 1.0918400000e-05     2     1     5     2
 3.9628000000e-06     2     1     5     3
 3.6017000000e-06     2     1     5     4
 8.8044559900e-02     2     1     5     5
-9.9000000000e-08     2     1     5     6
-1.4611700000e-05     2     1     5     7
-1.6580594000e-03     2     1     5     8
-3.2623900700e-02     2     1     5     9
 2.3349600000e-05     2     1     6     2
 8.8171000000e-06     2     1     6     3
 8.7813000000e-06     2     1     6     4
-2.6360000000e-07     2     1     6     5
 8.8043270400e-02     2     1     6     6
-4.6192300000e-05     2     1     6     7
 3.2624904300e-02     2     1     6     8
-1.6583416000e-03     2     1     6     9
 5.6102339000e-03     2     1     7     2
 7.4980034000e-03     2     1     7     3
 4.9713315500e-02     2     1     7     4
-2.0388800000e-05     2     1     7     5
-6.3186600000e-05     2     1     7     6
 9.4815267400e-02     2     1     7     7
-1.2633000000e-06     2     1     7     8
 9.0180000000e-07     2     1     7     9
 2.1700000000e-07     2     1     8     2
 2.8685800000e-05     2     1     8     3
 5.8637100000e-05     2     1     8     4
-2.2943320000e-03     2     1     8     5
 4.5144123500e-02     2     1     8     6
-1.8148000000e-06     2     1     8     7
 1.0485893230e-01     2     1     8     8
 9.7840000000e-07     2     1     8     9
 1.6741000000e-06     2     1     9     2
-2.1227400000e-05     2     1     9     3
-2.2359000000e-05     2     1     9     4
-4.5143138200e-02     2     1     9     5
-2.2946317000e-03     2     1     9     6
 1.6174000000e-06     2     1     9     7
 9.3710000000e-07     2     1     9     8
 1.0485257430e-01     2     1     9     9
-4.7516399600e-02     2     2     1     1
 1.8747312300e-02     2     2     1     3
 2.4363416400e-02     2     2     1     4
-1.0918400000e-05     2     2     1     5
-2.3349600000e-05     2     2     1     6
-5.6102339000e-03     2     2     1     7
-2.1700000000e-07     2     2     1     8
-1.6741000000e-06     2     2     1     9
 1.8747312300e-02     2     2     3     1
-2.6918188100e-02     2     2     3     3
-8.4209431000e-03     2     2     3     4
 5.1228000000e-06     2     2     3     5
 1.1814800000e-05     2     2     3     6
-3.6287600000e-03     2     2     3     7
 1.4050400000e-05     2     2     3     8
-1.3575600000e-05     2     2     3     9
 2.4363416400e-02     2     2     4     1
-8.4209431000e-03     2     2     4     3
 8.7723395000e-03     2     2     4     4
-4.6400000000e-08     2     2     4     5
 7.1100000000e-07     2     2     4     6
 2.4163193200e-02     2     2     4     7
 3.4418700000e-05     2     2     4     8
-1.5830600000e-05     2     2     4     9
-1.0918400000e-05     2     2     5     1
 5.1228000000e-06     2     2     5     3
-4.6400000000e-08     2     2     5     4
 8.6924973000e-03     2     2     5     5
-5.0500000000e-08     2     2     5     6
-9.0097000000e-06     2     2     5     7
-1.3004248000e-03     2     2     5     8
-2.5576414700e-02     2     2     5     9
-2.3349600000e-05     2     2     6     1
 1.1814800000e-05     2     2     6     3
 7.1100000000e-07     2     2     6     4
-5.0500000000e-08     2     2     6     5
 8.6915879000e-03     2     2     6     6
-3.0595800000e-05     2     2     6     7
 2.5580952300e-02     2     2     6     8
-1.3000263000e-03     2     2     6     9
-5.6102339000e-03     2     2     7     1
-3.6287600000e-03     2     2     7     3
 2.4163193200e-02     2     2     7     4
-9.0097000000e-06     2     2     7     5
-3.0595800000e-05     2     2     7     6
 1.6463007200e-02     2     2     7     7
 3.2446000000e-06     2     2     7     8
-6.7920000000e-07     2     2     7     9
-2.1700000000e-07     2     2     8     1
 1.4050400000e-05     2     2     8     3
 3.4418700000e-05     2     2     8     4
-1.3004248000e-03     2     2     8     5
 2.5580952300e-02     2     2     8     6
 3.2446000000e-06     2     2     8     7
 1.6289237600e-02     2     2     8     8
 3.0860000000e-07     2     2     8     9
-1.6741000000e-06     2     2     9     1
-1.3575600000e-05     2     2     9     3
-1.5830600000e-05     2     2     9     4
-2.5576414700e-02     2     2     9     5
-1.3000263000e-03     2     2     9     6
-6.7920000000e-07     2     2     9     7
 3.0860000000e-07     2     2     9     8
 1.6288300300e-02     2     2     9     9
-4.2046190900e-02     2     3     1     1
-1.8747312300e-02     2     3     1     2
-2.9106957000e-03     2     3     1     4
 1.2164000000e-06     2     3     1     5
 2.5203000000e-06     2     3     1     6
 3.6325310000e-04     2     3     1     7
-4.9799000000e-06     2     3     1     8
 3.9985000000e-06     2     3     1     9