&FCI NORB=  9,NELEC=  2,MS2=0,
 ORBSYM=1,1,1,1,1,1,1,1,1
 ISYM=1,
&END
-3.0030869100e-02     1     1     2     2
 2.3636085000e-02     1     1     2     3
 2.7888500000e-05     1     1     2     4
 3.3071060000e-04     1     1     2     5
-4.5636350200e-02     1     1     2     6
 1.5889229300e-02     1     1     2     7
 1.0061780000e-04     1     1     2     8
-1.6719270000e-04     1     1     2     9
 2.3636085000e-02     1     1     3     2
 8.4997692900e-02     1     1     3     3
-1.5553000000e-06     1     1     3     4
-3.1384900000e-05     1     1     3     5
 4.7440581000e-03     1     1     3     6
 5.6615941300e-02     1     1     3     7
 3.8786940000e-04     1     1     3     8
-6.0154770000e-04     1     1     3     9
 2.7888500000e-05     1     1     4     2
-1.5553000000e-06     1     1     4     3
 9.3879316200e-02     1     1     4     4
-2.5900000000e-08     1     1     4     5
 6.5156000000e-06     1     1     4     6
-4.1212910000e-04     1     1     4     7
-3.4419329500e-02     1     1     4     8
-5.6850972400e-02     1     1     4     9
 3.3071060000e-04     1     1     5     2
-3.1384900000e-05     1     1     5     3
-2.5900000000e-08     1     1     5     4
 9.3874063500e-02     1     1     5     5
 7.0421100000e-05     1     1     5     6
-9.1638010000e-04     1     1     5     7
 5.6849012500e-02     1     1     5     8
-3.4412907500e-02     1     1     5     9
-4.5636350200e-02     1     1     6     2
 4.7440581000e-03     1     1     6     3
 6.5156000000e-06     1     1     6     4
 7.0421100000e-05     1     1     6     5
 8.9198283000e-02     1     1     6     6
 3.4953918100e-02     1     1     6     7
 4.4987060000e-04     1     1     6     8
-5.9886860000e-04     1     1     6     9
 1.5889229300e-02     1     1     7     2
 5.6615941300e-02     1     1     7     3
-4.1212910000e-04     1     1     7     4
-9.1638010000e-04     1     1     7     5
 3.4953918100e-02     1     1     7     6
 1.2219473210e-01     1     1     7     7
-2.3969000000e-06     1     1     7     8
-1.2534700000e-05     1     1     7     9
 1.0061780000e-04     1     1     8     2
 3.8786940000e-04     1     1     8     3
-3.4419329500e-02     1     1     8     4
 5.6849012500e-02     1     1     8     5
 4.4987060000e-04     1     1     8     6
-2.3969000000e-06     1     1     8     7
 1.2368851600e-01     1     1     8     8
-2.4270000000e-06     1     1     8     9
-1.6719270000e-04     1     1     9     2
-6.0154770000e-04     1     1     9     3
-5.6850972400e-02     1     1     9     4
-3.4412907500e-02     1     1     9     5
-5.9886860000e-04     1     1     9     6
-1.2534700000e-05     1     1     9     7
-2.4270000000e-06     1     1     9     8
 1.2369270790e-01     1     1     9     9
 3.0030869100e-02     1     2     2     1
 3.0544671000e-03     1     2     2     3
-2.3924600000e-05     1     2     2     4
-2.6466520000e-04     1     2     2     5
 3.6760942900e-02     1     2     2     6
-7.3263648000e-03     1     2     2     7
-5.7235700000e-05     1     2     2     8
 8.2182400000e-05     1     2     2     9
-2.3636085000e-02     1     2     3     1
-8.3336694900e-02     1     2     3     3
 1.6723000000e-06     1     2     3     4
 2.6233500000e-05     1     2     3     5
-4.2690958000e-03     1     2     3     6
-3.6039641300e-02     1     2     3     7
-2.4806130000e-04     1     2     3     8
 3.8087560000e-04     1     2     3     9
-2.7888500000e-05     1     2     4     1
 4.2766000000e-06     1     2     4     3
-8.7332975800e-02     1     2     4     4
 2.3060000000e-07     1     2     4     5
-1.3911100000e-05     1     2     4     6
 3.0256470000e-04     1     2     4     7
 2.4854721700e-02     1     2     4     8
 4.1052412600e-02     1     2     4     9
-3.3071060000e-04     1     2     5     1
 5.2353500000e-05     1     2     5     3
-6.4600000000e-08     1     2     5     4
-8.7329339000e-02     1     2     5     5
-1.5981660000e-04     1     2     5     6
 7.3415110000e-04     1     2     5     7
-4.1050994500e-02     1     2     5     8
 2.4848709900e-02     1     2     5     9
 4.5636350200e-02     1     2     6     1
-7.5461784000e-03     1     2     6     3
-1.3651200000e-05     1     2     6     4
-1.5777190000e-04     1     2     6     5
-7.0513251800e-02     1     2     6     6
-3.4611317600e-02     1     2     6     7
-3.8624420000e-04     1     2     6     8
 5.2945980000e-04     1     2     6     9
-1.5889229300e-02     1     2     7     1
-2.3006342200e-02     1     2     7     3
 2.0460960000e-04     1     2     7     4
 4.9624460000e-04     1     2     7     5
-2.2877512600e-02     1     2     7     6
-9.4249878400e-02     1     2     7     7
-1.1816000000e-06     1     2     7     8
-1.0568300000e-05     1     2     7     9
-1.0061780000e-04     1     2     8     1
-1.6707610000e-04     1     2     8     3
 1.6792748000e-02     1     2     8     4
-2.7736899100e-02     1     2     8     5
-2.4488800000e-04     1     2     8     6
 2.6544000000e-06     1     2     8     7
-9.7460342400e-02     1     2     8     8
 1.7830000000e-06     1     2     8     9
 1.6719270000e-04     1     2     9     1
 2.4554410000e-04     1     2     9     3
 2.7737692600e-02     1     2     9     4
 1.6788889200e-02     1     2     9     5
 3.4907350000e-04     1     2     9     6
-1.1552400000e-05     1     2     9     7
 1.7062000000e-06     1     2     9     8
-9.7463348300e-02     1     2     9     9
-2.3636085000e-02     1     3     2     1
-3.0544671000e-03     1     3     2     2
-2.6043000000e-06     1     3     2     4
-2.6120000000e-05     1     3     2     5
 3.2770826000e-03     1     3     2     6
-1.3033299100e-02     1     3     2     7
-8.0985200000e-05     1     3     2     8
 1.3533150000e-04     1     3     2     9
-8.4997692900e-02     1     3     3     1
 8.3336694900e-02     1     3     3     2
 1.4212900000e-05     1     3     3     4
 2.0260980000e-04     1     3     3     5
-2.8567420800e-02     1     3     3     6
-2.9938744900e-02     1     3     3     7
-1.6454260000e-04     1     3     3     8
 3.1046460000e-04     1     3     3     9
 1.5553000000e-06     1     3     4     1
-4.2766000000e-06     1     3     4     2
-4.4218798800e-02     1     3     4     4
 1.3210000000e-07     1     3     4     5
-2.0123000000e-06     1     3     4     6
 9.8861700000e-05     1     3     4     7
 9.1402500000e-03     1     3     4     8
 1.5098093900e-02     1     3     4     9
 3.1384900000e-05     1     3     5     1
-5.2353500000e-05     1     3     5     2
-1.0730000000e-07     1     3     5     4
-4.4217807300e-02     1     3     5     5
-1.9753900000e-05     1     3     5     6
 1.1818250000e-04     1     3     5     7
-1.5097437200e-02     1     3     5     8
 9.1413167000e-03     1     3     5     9
-4.7440581000e-03     1     3     6     1
 7.5461784000e-03     1     3     6     2
-1.8498000000e-06     1     3     6     4
-1.9981300000e-05     1     3     6     5
-4.0619212400e-02     1     3     6     6
 7.6776709000e-03     1     3     6     7
-1.7834600000e-05     1     3     6     8
-1.4156600000e-05     1     3     6     9
-5.6615941300e-02     1     3     7     1
 2.3006342200e-02     1     3     7     2
 4.0342900000e-05     1     3     7     4
 1.2571910000e-04     1     3     7     5
-9.3689281000e-03     1     3     7     6
-4.4222583800e-02     1     3     7     7
 2.7819300000e-05     1     3     7     8
-2.6579000000e-06     1     3     7     9
-3.8786940000e-04     1     3     8     1
 1.6707610000e-04     1     3     8     2
 3.0400607000e-03     1     3     8     4
-5.0215154000e-03     1     3     8     5
-7.5957400000e-05     1     3     8     6
-6.8830000000e-07     1     3     8     7
-4.4533855800e-02     1     3     8     8
 5.0860000000e-07     1     3     8     9
 6.0154770000e-04     1     3     9     1
-2.4554410000e-04     1     3     9     2
 5.0215132000e-03     1     3     9     4
 3.0391125000e-03     1     3     9     5
 1.1504220000e-04     1     3     9     6
 6.0544000000e-06     1     3     9     7
-2.4680000000e-07     1     3     9     8
-4.4534897700e-02     1     3     9     9
-2.7888500000e-05     1     4     2     1
 2.3924600000e-05     1     4     2     2
 2.6043000000e-06     1     4     2     3
 2.9520000000e-07     1     4     2     5
-2.5990000000e-07     1     4     2     6
 9.7955100000e-05     1     4     2     7
 8.0619737000e-03     1     4     2     8
 1.3314720000e-02     1     4     2     9
 1.5553000000e-06     1     4     3     1
-1.6723000000e-06     1     4     3     2
-1.4212900000e-05     1     4     3     3
 2.3940000000e-07     1     4     3     5
-1.6250000000e-07     1     4     3     6
 5.8518800000e-05     1     4     3     7
 6.1001893000e-03     1     4     3     8
 1.0076580700e-02     1     4     3     9
-9.3879316200e-02     1     4     4     1
 8.7332975800e-02     1     4     4     2
 4.4218798800e-02     1     4     4     3
 2.0274540000e-04     1     4     4     5
-2.8677325300e-02     1     4     4     6
-6.6672082000e-03     1     4     4     7
 2.5512000000e-06     1     4     4     8
 8.2041600000e-05     1     4     4     9
 2.5900000000e-08     1     4     5     1
 6.4600000000e-08     1     4     5     2
 1.0730000000e-07     1     4     5     3
-1.4044800000e-05     1     4     5     5
-8.1700000000e-08     1     4     5     6
 1.2230000000e-06     1     4     5     7
 7.2404200000e-05     1     4     5     8
 1.5475270000e-04     1     4     5     9
-6.5156000000e-06     1     4     6     1
 1.3651200000e-05     1     4     6     2
 1.8498000000e-06     1     4     6     3
-1.5270000000e-07     1     4     6     5
-1.3858600000e-05     1     4     6     6
-1.5039700000e-04     1     4     6     7
-1.2038730900e-02     1     4     6     8
-1.9881847500e-02     1     4     6     9
 4.1212910000e-04     1     4     7     1
-2.0460960000e-04     1     4     7     2
-4.0342900000e-05     1     4     7     3
-3.6660000000e-07     1     4     7     5
 4.1194300000e-05     1     4     7     6
-8.3972000000e-06     1     4     7     7
 1.4023300000e-05     1     4     7     8
 2.3786300000e-05     1     4     7     9
 3.4419329500e-02     1     4     8     1
-1.6792748000e-02     1     4     8     2
-3.0400607000e-03     1     4     8     3
-2.6666100000e-05     1     4     8     5
 3.5127144000e-03     1     4     8     6
 1.1058510000e-04     1     4     8     7
-2.7002800000e-05     1     4     8     8
 3.3672000000e-06     1     4     8     9
 5.6850972400e-02     1     4     9     1
-2.7737692600e-02     1     4     9     2
-5.0215132000e-03     1     4     9     3
-3.6979800000e-05     1     4     9     5
 5.8035304000e-03     1     4     9     6
 1.8241550000e-04     1     4     9     7
-3.2163300000e-05     1     4     9     8
-5.5955000000e-06     1     4     9     9
-3.3071060000e-04     1     5     2     1
 2.6466520000e-04     1     5     2     2
 2.6120000000e-05     1     5     2     3
-2.9520000000e-07     1     5     2     4
-2.0447000000e-06     1     5     2     6
 2.3790650000e-04     1     5     2     7
-1.3314095400e-02     1     5     2     8
 8.0598207000e-03     1     5     2     9
 3.1384900000e-05     1     5     3     1
-2.6233500000e-05     1     5     3     2
-2.0260980000e-04     1     5     3     3
-2.3940000000e-07     1     5     3     4
 2.2740000000e-07     1     5     3     6
-7.5366000000e-06     1     5     3     7
-1.0075921800e-02     1     5     3     8
 6.1022042000e-03     1     5     3     9
 2.5900000000e-08     1     5     4     1
-2.3060000000e-07     1     5     4     2
-1.3210000000e-07     1     5     4     3
-2.0274540000e-04     1     5     4     4
 7.1000000000e-08     1     5     4     6
 1.5896000000e-06     1     5     4     7
 9.9070300000e-05     1     5     4     8
 1.9173250000e-04     1     5     4     9
-9.3874063500e-02     1     5     5     1
 8.7329339000e-02     1     5     5     2
 4.4217807300e-02     1     5     5     3
 1.4044800000e-05     1     5     5     4
-2.8676017500e-02     1     5     5     6
-6.6628268000e-03     1     5     5     7
-3.0598400000e-04     1     5     5     8
 2.3230340000e-04     1     5     5     9
-7.0421100000e-05     1     5     6     1
 1.5777190000e-04     1     5     6     2
 1.9981300000e-05     1     5     6     3
 1.5270000000e-07     1     5     6     4
-1.9717570000e-04     1     5     6     6
-4.3329840000e-04     1     5     6     7
 1.9879504400e-02     1     5     6     8
-1.2033591200e-02     1     5     6     9
 9.1638010000e-04     1     5     7     1
-4.9624460000e-04     1     5     7     2
-1.2571910000e-04     1     5     7     3
 3.6660000000e-07     1     5     7     4
 7.3252600000e-05     1     5     7     6
-1.5332490000e-04     1     5     7     7
-2.3980200000e-05     1     5     7     8
 1.4419900000e-05     1     5     7     9
-5.6849012500e-02     1     5     8     1
 2.7736899100e-02     1     5     8     2
 5.0215154000e-03     1     5     8     3
 2.6666100000e-05     1     5     8     4
-5.8044192000e-03     1     5     8     6
-1.8255610000e-04     1     5     8     7
-1.3477260000e-04     1     5     8     8
 7.2090000000e-07     1     5     8     9
 3.4412907500e-02     1     5     9     1
-1.6788889200e-02     1     5     9     2
-3.0391125000e-03     1     5     9     3
 3.6979800000e-05     1     5     9     4
 3.5125414000e-03     1     5     9     6
 1.1018930000e-04     1     5     9     7
-6.6260000000e-06     1     5     9     8
-1.5253620000e-04     1     5     9     9
 4.5636350200e-02     1     6     2     1
-3.6760942900e-02     1     6     2     2
-3.2770826000e-03     1     6     2     3
 2.5990000000e-07     1     6     2     4
 2.0447000000e-06     1     6     2     5
-1.1733805000e-02     1     6     2     7
-1.4135620000e-04     1     6     2     8
 1.8038630000e-04     1     6     2     9
-4.7440581000e-03     1     6     3     1
 4.2690958000e-03     1     6     3     2
 2.8567420800e-02     1     6     3     3
 1.6250000000e-07     1     6     3     4
-2.2740000000e-07     1     6     3     5
 1.7046599000e-02     1     6     3     7
 5.8122800000e-05     1     6     3     8
-1.2919880000e-04     1     6     3     9
-6.5156000000e-06     1     6     4     1
 1.3911100000e-05     1     6     4     2
 2.0123000000e-06     1     6     4     3
 2.8677325300e-02     1     6     4     4
-7.1000000000e-08     1     6     4     5
-1.9159130000e-04     1     6     4     7
-1.5551445300e-02     1     6     4     8
-2.5685377900e-02     1     6     4     9
-7.0421100000e-05     1     6     5     1
 1.5981660000e-04     1     6     5     2
 1.9753900000e-05     1     6     5     3
 8.1700000000e-08     1     6     5     4
 2.8676017500e-02     1     6     5     5
-5.0655100000e-04     1     6     5     7
 2.5683923600e-02     1     6     5     8
-1.5546132600e-02     1     6     5     9
-8.9198283000e-02     1     6     6     1
 7.0513251800e-02     1     6     6     2
 4.0619212400e-02     1     6     6     3
 1.3858600000e-05     1     6     6     4
 1.9717570000e-04     1     6     6     5
 2.1768125100e-02     1     6     6     7
 4.1410050000e-04     1     6     6     8
-4.4741160000e-04     1     6     6     9
-3.4953918100e-02     1     6     7     1
 2.2877512600e-02     1     6     7     2
 9.3689281000e-03     1     6     7     3
-4.1194300000e-05     1     6     7     4
-7.3252600000e-05     1     6     7     5
 2.2776033000e-02     1     6     7     7
 2.9877200000e-05     1     6     7     8
-2.4534000000e-05     1     6     7     9
-4.4987060000e-04     1     6     8     1
 2.4488800000e-04     1     6     8     2
 7.5957400000e-05     1     6     8     3
-3.5127144000e-03     1     6     8     4
 5.8044192000e-03     1     6     8     5
 5.5078000000e-06     1     6     8     7
 2.1557534900e-02     1     6     8     8
-9.7970000000e-07     1     6     8     9
 5.9886860000e-04     1     6     9     1
-3.4907350000e-04     1     6     9     2
-1.1504220000e-04     1     6     9     3
-5.8035304000e-03     1     6     9     4
-3.5125414000e-03     1     6     9     5
-1.7942100000e-05     1     6     9     7
-7.4170000000e-07     1     6     9     8
 2.1559048100e-02     1     6     9     9
-1.5889229300e-02     1     7     2     1
 7.3263648000e-03     1     7     2     2
 1.3033299100e-02     1     7     2     3
-9.7955100000e-05     1     7     2     4
-2.3790650000e-04     1     7     2     5
 1.1733805000e-02     1     7     2     6
-3.8360000000e-06     1     7     2     8
 9.8410000000e-07     1     7     2     9
-5.6615941300e-02     1     7     3     1
 3.6039641300e-02     1     7     3     2
 2.9938744900e-02     1     7     3     3
-5.8518800000e-05     1     7     3     4
 7.5366000000e-06     1     7     3     5
-1.7046599000e-02     1     7     3     6
 2.8507600000e-05     1     7     3     8
-8.7123000000e-06     1     7     3     9
 4.1212910000e-04     1     7     4     1
-3.0256470000e-04     1     7     4     2
-9.8861700000e-05     1     7     4     3
 6.6672082000e-03     1     7     4     4
-1.5896000000e-06     1     7     4     5
 1.9159130000e-04     1     7     4     6
-9.6561800000e-05     1     7     4     8
-1.5862920000e-04     1     7     4     9
 9.1638010000e-04     1     7     5     1
-7.3415110000e-04     1     7     5     2
-1.1818250000e-04     1     7     5     3
-1.2230000000e-06     1     7     5     4
 6.6628268000e-03     1     7     5     5
 5.0655100000e-04     1     7     5     6
 1.5857590000e-04     1     7     5     8
-9.5769400000e-05     1     7     5     9
-3.4953918100e-02     1     7     6     1
 3.4611317600e-02     1     7     6     2
-7.6776709000e-03     1     7     6     3
 1.5039700000e-04     1     7     6     4
 4.3329840000e-04     1     7     6     5
-2.1768125100e-02     1     7     6     6
 2.4369400000e-05     1     7     6     8
-6.5919000000e-06     1     7     6     9
-1.2219473210e-01     1     7     7     1
 9.4249878400e-02     1     7     7     2
 4.4222583800e-02     1     7     7     3
 8.3972000000e-06     1     7     7     4
 1.5332490000e-04     1     7     7     5
-2.2776033000e-02     1     7     7     6
-5.2590000000e-07     1     7     7     8
 3.0884900000e-05     1     7     7     9
 2.3969000000e-06     1     7     8     1
-2.6544000000e-06     1     7     8     2
 6.8830000000e-07     1     7     8     3
-1.1058510000e-04     1     7     8     4
 1.8255610000e-04     1     7     8     5
-5.5078000000e-06     1     7     8     6
 4.0673065000e-03     1     7     8     8
-3.7500000000e-08     1     7     8     9
 1.2534700000e-05     1     7     9     1
 1.1552400000e-05     1     7     9     2
-6.0544000000e-06     1     7     9     3
-1.8241550000e-04     1     7     9     4
-1.1018930000e-04     1     7     9     5
 1.7942100000e-05     1     7     9     6
 1.4120000000e-07     1     7     9     8
 4.0670019000e-03     1     7     9     9
-1.0061780000e-04     1     8     2     1
 5.7235700000e-05     1     8     2     2
 8.0985200000e-05     1     8     2     3
-8.0619737000e-03     1     8     2     4
 1.3314095400e-02     1     8     2     5
 1.4135620000e-04     1     8     2     6
 3.8360000000e-06     1     8     2     7
 7.6800000000e-08     1     8     2     9
-3.8786940000e-04     1     8     3     1
 2.4806130000e-04     1     8     3     2
 1.6454260000e-04     1     8     3     3
-6.1001893000e-03     1     8     3     4
 1.0075921800e-02     1     8     3     5
-5.8122800000e-05     1     8     3     6
-2.8507600000e-05     1     8     3     7
 7.5540000000e-07     1     8     3     9
 3.4419329500e-02     1     8     4     1
-2.4854721700e-02     1     8     4     2
-9.1402500000e-03     1     8     4     3
-2.5512000000e-06     1     8     4     4
-9.9070300000e-05     1     8     4     5
 1.5551445300e-02     1     8     4     6
 9.6561800000e-05     1     8     4     7
 3.5530500000e-05     1     8     4     9
-5.6849012500e-02     1     8     5     1
 4.1050994500e-02     1     8     5     2
 1.5097437200e-02     1     8     5     3
-7.2404200000e-05     1     8     5     4
 3.0598400000e-04     1     8     5     5
-2.5683923600e-02     1     8     5     6
-1.5857590000e-04     1     8     5     7
 7.3469000000e-06     1     8     5     9
-4.4987060000e-04     1     8     6     1
 3.8624420000e-04     1     8     6     2
 1.7834600000e-05     1     8     6     3
 1.2038730900e-02     1     8     6     4
-1.9879504400e-02     1     8     6     5
-4.1410050000e-04     1     8     6     6
-2.4369400000e-05     1     8     6     7
-2.3800000000e-07     1     8     6     9
 2.3969000000e-06     1     8     7     1
 1.1816000000e-06     1     8     7     2
-2.7819300000e-05     1     8     7     3
-1.4023300000e-05     1     8     7     4
 2.3980200000e-05     1     8     7     5
-2.9877200000e-05     1     8     7     6
 5.2590000000e-07     1     8     7     7
-1.7870000000e-07     1     8     7     9
-1.2368851600e-01     1     8     8     1
 9.7460342400e-02     1     8     8     2
 4.4533855800e-02     1     8     8     3
 2.7002800000e-05     1     8     8     4
 1.3477260000e-04     1     8     8     5
-2.1557534900e-02     1     8     8     6
-4.0673065000e-03     1     8     8     7
 3.0559300000e-05     1     8     8     9
 2.4270000000e-06     1     8     9     1
-1.7062000000e-06     1     8     9     2
 2.4680000000e-07     1     8     9     3
 3.2163300000e-05     1     8     9     4
 6.6260000000e-06     1     8     9     5
 7.4170000000e-07     1     8     9     6
-1.4120000000e-07     1     8     9     7
 9.6440000000e-07     1     8     9     9
 1.6719270000e-04     1     9     2     1
-8.2182400000e-05     1     9     2     2
-1.3533150000e-04     1     9     2     3
-1.3314720000e-02     1     9     2     4
-8.0598207000e-03     1     9     2     5
-1.8038630000e-04     1     9     2     6
-9.8410000000e-07     1     9     2     7
-7.6800000000e-08     1     9     2     8
 6.0154770000e-04     1     9     3     1
-3.8087560000e-04     1     9     3     2
-3.1046460000e-04     1     9     3     3
-1.0076580700e-02     1     9     3     4
-6.1022042000e-03     1     9     3     5
 1.2919880000e-04     1     9     3     6
 8.7123000000e-06     1     9     3     7
-7.5540000000e-07     1     9     3     8
 5.6850972400e-02     1     9     4     1
-4.1052412600e-02     1     9     4     2
-1.5098093900e-02     1     9     4     3
-8.2041600000e-05     1     9     4     4
-1.9173250000e-04     1     9     4     5
 2.5685377900e-02     1     9     4     6
 1.5862920000e-04     1     9     4     7
-3.5530500000e-05     1     9     4     8
 3.4412907500e-02     1     9     5     1
-2.4848709900e-02     1     9     5     2
-9.1413167000e-03     1     9     5     3
-1.5475270000e-04     1     9     5     4
-2.3230340000e-04     1     9     5     5
 1.5546132600e-02     1     9     5     6
 9.5769400000e-05     1     9     5     7
-7.3469000000e-06     1     9     5     8
 5.9886860000e-04     1     9     6     1
-5.2945980000e-04     1     9     6     2
 1.4156600000e-05     1     9     6     3
 1.9881847500e-02     1     9     6     4
 1.2033591200e-02     1     9     6     5
 4.4741160000e-04     1     9     6     6
 6.5919000000e-06     1     9     6     7
 2.3800000000e-07     1     9     6     8
 1.2534700000e-05     1     9     7     1
 1.0568300000e-05     1     9     7     2
 2.6579000000e-06     1     9     7     3
-2.3786300000e-05     1     9     7     4
-1.4419900000e-05     1     9     7     5
 2.4534000000e-05     1     9     7     6
-3.0884900000e-05     1     9     7     7
 1.7870000000e-07     1     9     7     8
 2.4270000000e-06     1     9     8     1
-1.7830000000e-06     1     9     8     2
-5.0860000000e-07     1     9     8     3
-3.3672000000e-06     1     9     8     4
-7.2090000000e-07     1     9     8     5
 9.7970000000e-07     1     9     8     6
 3.7500000000e-08     1     9     8     7
-3.0559300000e-05     1     9     8     8
-1.2369270790e-01     1     9     9     1
 9.7463348300e-02     1     9     9     2
 4.4534897700e-02     1     9     9     3
 5.5955000000e-06     1     9     9     4
 1.5253620000e-04     1     9     9     5
-2.1559048100e-02     1     9     9     6
-4.0670019000e-03     1     9     9     7
-9.6440000000e-07     1     9     9     8
 3.0030869100e-02     2     1     1     2
-2.3636085000e-02     2     1     1     3
-2.7888500000e-05     2     1     1     4
-3.3071060000e-04     2     1     1     5
 4.5636350200e-02     2     1     1     6
-1.5889229300e-02     2     1     1     7
-1.0061780000e-04     2     1     1     8
 1.6719270000e-04     2     1     1     9
 3.0544671000e-03     2     1     3     2
-8.3336694900e-02     2     1     3     3
 4.2766000000e-06     2     1     3     4
 5.2353500000e-05     2     1     3     5
-7.5461784000e-03     2     1     3     6
-2.3006342200e-02     2     1     3     7
-1.6707610000e-04     2     1     3     8
 2.4554410000e-04     2     1     3     9
-2.3924600000e-05     2     1     4     2
 1.6723000000e-06     2     1     4     3
-8.7332975800e-02     2     1     4     4
-6.4600000000e-08     2     1     4     5
-1.3651200000e-05     2     1     4     6
 2.0460960000e-04     2     1     4     7
 1.6792748000e-02     2     1     4     8
 2.7737692600e-02     2     1     4     9
-2.6466520000e-04     2     1     5     2
 2.6233500000e-05     2     1     5     3
 2.3060000000e-07     2     1     5     4
-8.7329339000e-02     2     1     5     5
-1.5777190000e-04     2     1     5     6
 4.9624460000e-04     2     1     5     7
-2.7736899100e-02     2     1     5     8
 1.6788889200e-02     2     1     5     9
 3.6760942900e-02     2     1     6     2
-4.2690958000e-03     2     1     6     3
-1.3911100000e-05     2     1     6     4
-1.5981660000e-04     2     1     6     5
-7.0513251800e-02     2     1     6     6
-2.2877512600e-02     2     1     6     7
-2.4488800000e-04     2     1     6     8
 3.4907350000e-04     2     1     6     9
-7.3263648000e-03     2     1     7     2
-3.6039641300e-02     2     1     7     3
 3.0256470000e-04     2     1     7     4
 7.3415110000e-04     2     1     7     5
-3.4611317600e-02     2     1     7     6
-9.4249878400e-02     2     1     7     7
 2.6544000000e-06     2     1     7     8
-1.1552400000e-05     2     1     7     9
-5.7235700000e-05     2     1     8     2
-2.4806130000e-04     2     1     8     3
 2.4854721700e-02     2     1     8     4
-4.1050994500e-02     2     1     8     5
-3.8624420000e-04     2     1     8     6
-1.1816000000e-06     2     1     8     7
-9.7460342400e-02     2     1     8     8
 1.7062000000e-06     2     1     8     9
 8.2182400000e-05     2     1     9     2
 3.8087560000e-04     2     1     9     3
 4.1052412600e-02     2     1     9     4
 2.4848709900e-02     2     1     9     5
 5.2945980000e-04     2     1     9     6
-1.0568300000e-05     2     1     9     7
 1.7830000000e-06     2     1     9     8
-9.7463348300e-02     2     1     9     9
-3.0030869100e-02     2     2     1     1
-3.0544671000e-03     2     2     1     3
 2.3924600000e-05     2     2     1     4
 2.6466520000e-04     2     2     1     5
-3.6760942900e-02     2     2     1     6
 7.3263648000e-03     2     2     1     7
 5.7235700000e-05     2     2     1     8
-8.2182400000e-05     2     2     1     9
-3.0544671000e-03     2     2     3     1
 1.2859060800e-02     2     2     3     3
-1.2915700000e-05     2     2     3     4
-1.6201620000e-04     2     2     3     5
 2.2566123000e-02     2     2     3     6
 2.6218093500e-02     2     2     3     7
 1.7599380000e-04     2     2     3     8
-2.7740230000e-04     2     2     3     9
 2.3924600000e-05     2     2     4     1
-1.2915700000e-05     2     2     4     3
 2.9077201500e-02     2     2     4     4
-9.7300000000e-08     2     2     4     5
 1.4725600000e-05     2     2     4     6
-1.8111940000e-04     2     2     4     7
-1.5305219500e-02     2     2     4     8
-2.5280566600e-02     2     2     4     9
 2.6466520000e-04     2     2     5     1
-1.6201620000e-04     2     2     5     3
-9.7300000000e-08     2     2     5     4
 2.9073807900e-02     2     2     5     5
 1.8232240000e-04     2     2     5     6
-3.7700270000e-04     2     2     5     7
 2.5279947200e-02     2     2     5     8
-1.5303504900e-02     2     2     5     9
-3.6760942900e-02     2     2     6     1
 2.2566123000e-02     2     2     6     3
 1.4725600000e-05     2     2     6     4
 1.8232240000e-04     2     2     6     5
 4.9231282000e-03     2     2     6     6
 1.1330977000e-02     2     2     6     7
 1.7647300000e-04     2     2     6     8
-2.2666670000e-04     2     2     6     9
 7.3263648000e-03     2     2     7     1
 2.6218093500e-02     2     2     7     3
-1.8111940000e-04     2     2     7     4
-3.7700270000e-04     2     2     7     5
 1.1330977000e-02     2     2     7     6
 3.2947501800e-02     2     2     7     7
 5.0080000000e-06     2     2     7     8
-2.9392800000e-05     2     2     7     9
 5.7235700000e-05     2     2     8     1
 1.7599380000e-04     2     2     8     3
-1.5305219500e-02     2     2     8     4
 2.5279947200e-02     2     2     8     5
 1.7647300000e-04     2     2     8     6
 5.0080000000e-06     2     2     8     7
 3.1362821700e-02     2     2     8     8
-8.2160000000e-07     2     2     8     9
-8.2182400000e-05     2     2     9     1
-2.7740230000e-04     2     2     9     3
-2.5280566600e-02     2     2     9     4
-1.5303504900e-02     2     2     9     5
-2.2666670000e-04     2     2     9     6
-2.9392800000e-05     2     2     9     7
-8.2160000000e-07     2     2     9     8
 3.1364842500e-02     2     2     9     9
 2.3636085000e-02     2     3     1     1
 3.0544671000e-03     2     3     1     2
 2.6043000000e-06     2     3     1     4
 2.6120000000e-05     2     3     1     5
-3.2770826000e-03     2     3     1     6
 1.3033299100e-02     2     3     1     7
 8.0985200000e-05     2     3     1     8
-1.3533150000e-04     2     3     1     9