&FCI NORB=  9,NELEC=  2,MS2=0,
 ORBSYM=1,1,1,1,1,1,1,1,1
 ISYM=1,
&END
-7.7404816700e-02     1     1     2     2
 3.2911183600e-02     1     1     2     3
 4.9172090000e-04     1     1     2     4
-8.0758000000e-06     1     1     2     5
 3.2280000000e-07     1     1     2     6
-1.1740171000e-03     1     1     2     7
 1.6796844000e-03     1     1     2     8
 5.7401000000e-06     1     1     2     9
 3.2911183600e-02     1     1     3     2
 6.4267472100e-02     1     1     3     3
-3.5713940000e-04     1     1     3     4
 6.3532000000e-06     1     1     3     5
-6.2410000000e-07     1     1     3     6
-7.9999547300e-02     1     1     3     7
 1.5017994000e-02     1     1     3     8
 2.2613700000e-05     1     1     3     9
 4.9172090000e-04     1     1     4     2
-3.5713940000e-04     1     1     4     3
 8.5727999600e-02     1     1     4     4
 9.0372300000e-05     1     1     4     5
-3.4992000000e-06     1     1     4     6
-1.3433142300e-02     1     1     4     7
-7.1484674500e-02     1     1     4     8
 8.4432550000e-04     1     1     4     9
-8.0758000000e-06     1     1     5     2
 6.3532000000e-06     1     1     5     3
 9.0372300000e-05     1     1     5     4
 9.3364640700e-02     1     1     5     5
-6.5100000000e-08     1     1     5     6
 1.9482240000e-04     1     1     5     7
 9.2043820000e-04     1     1     5     8
 6.8108490600e-02     1     1     5     9
 3.2280000000e-07     1     1     6     2
-6.2410000000e-07     1     1     6     3
-3.4992000000e-06     1     1     6     4
-6.5100000000e-08     1     1     6     5
 9.3364375800e-02     1     1     6     6
-1.1815200000e-05     1     1     6     7
-2.9962600000e-05     1     1     6     8
 1.3347745500e-02     1     1     6     9
-1.1740171000e-03     1     1     7     2
-7.9999547300e-02     1     1     7     3
-1.3433142300e-02     1     1     7     4
 1.9482240000e-04     1     1     7     5
-1.1815200000e-05     1     1     7     6
 1.3364283690e-01     1     1     7     7
-3.3074716000e-03     1     1     7     8
-1.6426800000e-05     1     1     7     9
 1.6796844000e-03     1     1     8     2
 1.5017994000e-02     1     1     8     3
-7.1484674500e-02     1     1     8     4
 9.2043820000e-04     1     1     8     5
-2.9962600000e-05     1     1     8     6
-3.3074716000e-03     1     1     8     7
 1.2525300990e-01     1     1     8     8
-5.8833100000e-05     1     1     8     9
 5.7401000000e-06     1     1     9     2
 2.2613700000e-05     1     1     9     3
 8.4432550000e-04     1     1     9     4
 6.8108490600e-02     1     1     9     5
 1.3347745500e-02     1     1     9     6
-1.6426800000e-05     1     1     9     7
-5.8833100000e-05     1     1     9     8
 1.4484466900e-01     1     1     9     9
 7.7404816700e-02     1     2     2     1
-1.9279512300e-02     1     2     2     3
-2.7844020000e-03     1     2     2     4
 4.6130400000e-05     1     2     2     5
-1.9387000000e-06     1     2     2     6
-6.3361310000e-04     1     2     2     7
-1.2610583000e-03     1     2     2     8
-5.5980000000e-06     1     2     2     9
-3.2911183600e-02     1     2     3     1
-6.3699259900e-02     1     2     3     3
 1.5388562000e-03     1     2     3     4
-2.5051400000e-05     1     2     3     5
 1.2365000000e-06     1     2     3     6
 4.5527438500e-02     1     2     3     7
-6.1055316000e-03     1     2     3     8
-3.9505000000e-06     1     2     3     9
-4.9172090000e-04     1     2     4     1
 1.8673831000e-03     1     2     4     3
-8.4359379400e-02     1     2     4     4
-5.0349400000e-05     1     2     4     5
 1.9485000000e-06     1     2     4     6
 7.6060570000e-03     1     2     4     7
 4.0836769600e-02     1     2     4     8
-4.6748400000e-04     1     2     4     9
 8.0758000000e-06     1     2     5     1
-3.0578200000e-05     1     2     5     3
-5.0959300000e-05     1     2     5     4
-8.7232567100e-02     1     2     5     5
-3.0000000000e-10     1     2     5     6
-1.1019040000e-04     1     2     5     7
-5.3009640000e-04     1     2     5     8
-3.8090269900e-02     1     2     5     9
-3.2280000000e-07     1     2     6     1
 1.4427000000e-06     1     2     6     3
 2.0281000000e-06     1     2     6     4
 4.5200000000e-08     1     2     6     5
-8.7232287100e-02     1     2     6     6
 6.6384000000e-06     1     2     6     7
 1.7371900000e-05     1     2     6     8
-7.4649615000e-03     1     2     6     9
 1.1740171000e-03     1     2     7     1
 3.9149775400e-02     1     2     7     3
 5.7287805000e-03     1     2     7     4
-8.2212000000e-05     1     2     7     5
 5.0874000000e-06     1     2     7     6
-1.0517814330e-01     1     2     7     7
 3.0261167000e-03     1     2     7     8
 1.3565900000e-05     1     2     7     9
-1.6796844000e-03     1     2     8     1
-5.1193398000e-03     1     2     8     3
 3.1204604700e-02     1     2     8     4
-3.9949130000e-04     1     2     8     5
 1.2805900000e-05     1     2     8     6
 3.2866903000e-03     1     2     8     7
-1.0171373610e-01     1     2     8     8
 3.8295000000e-05     1     2     8     9
-5.7401000000e-06     1     2     9     1
-2.7229000000e-06     1     2     9     3
-3.8138010000e-04     1     2     9     4
-3.0668518000e-02     1     2     9     5
-6.0101075000e-03     1     2     9     6
 1.4730400000e-05     1     2     9     7
 3.8688400000e-05     1     2     9     8
-1.1221077230e-01     1     2     9     9
-3.2911183600e-02     1     3     2     1
 1.9279512300e-02     1     3     2     2
-3.2852690000e-04     1     3     2     4
 5.5268000000e-06     1     3     2     5
-2.0620000000e-07     1     3     2     6
 6.3776631000e-03     1     3     2     7
-9.8619180000e-04     1     3     2     8
-1.2276000000e-06     1     3     2     9
-6.4267472100e-02     1     3     3     1
 6.3699259900e-02     1     3     3     2
-1.3395558000e-03     1     3     3     4
 2.1704800000e-05     1     3     3     5
-7.4290000000e-07     1     3     3     6
 4.1841692200e-02     1     3     3     7
-8.7400918000e-03     1     3     3     8
-1.5581900000e-05     1     3     3     9
 3.5713940000e-04     1     3     4     1
-1.8673831000e-03     1     3     4     2
-6.4448952800e-02     1     3     4     4
-1.4937400000e-05     1     3     4     5
 5.1180000000e-07     1     3     4     6
 7.4503369000e-03     1     3     4     7
 4.2318390500e-02     1     3     4     8
-5.5477970000e-04     1     3     4     9
-6.3532000000e-06     1     3     5     1
 3.0578200000e-05     1     3     5     2
-1.5251000000e-05     1     3     5     4
-6.6596051200e-02     1     3     5     5
 1.0800000000e-08     1     3     5     6
-1.0550140000e-04     1     3     5     7
-5.3235620000e-04     1     3     5     8
-4.3656693400e-02     1     3     5     9
 6.2410000000e-07     1     3     6     1
-1.4427000000e-06     1     3     6     2
 5.7100000000e-07     1     3     6     4
 4.3300000000e-08     1     3     6     5
-6.6595800700e-02     1     3     6     6
 6.6952000000e-06     1     3     6     7
 1.6931900000e-05     1     3     6     8
-8.5557053000e-03     1     3     6     9
 7.9999547300e-02     1     3     7     1
-3.9149775400e-02     1     3     7     2
 2.6749230000e-03     1     3     7     4
-3.8956600000e-05     1     3     7     5
 2.3673000000e-06     1     3     7     6
-7.0349627400e-02     1     3     7     7
 9.6009080000e-04     1     3     7     8
 5.2668000000e-06     1     3     7     9
-1.5017994000e-02     1     3     8     1
 5.1193398000e-03     1     3     8     2
 1.3178757900e-02     1     3     8     4
-1.6848710000e-04     1     3     8     5
 5.4008000000e-06     1     3     8     6
 9.6486930000e-04     1     3     8     7
-6.9312333500e-02     1     3     8     8
 1.6212400000e-05     1     3     8     9
-2.2613700000e-05     1     3     9     1
 2.7229000000e-06     1     3     9     2
-1.5260580000e-04     1     3     9     4
-1.2251223400e-02     1     3     9     5
-2.3998783000e-03     1     3     9     6
 4.9846000000e-06     1     3     9     7
 1.5293100000e-05     1     3     9     8
-7.7009327200e-02     1     3     9     9
-4.9172090000e-04     1     4     2     1
 2.7844020000e-03     1     4     2     2
 3.2852690000e-04     1     4     2     3
 6.0990000000e-07     1     4     2     5
-7.9600000000e-08     1     4     2     6
 1.8772765000e-03     1     4     2     7
 9.6321649000e-03     1     4     2     8
-8.6103900000e-05     1     4     2     9
 3.5713940000e-04     1     4     3     1
-1.5388562000e-03     1     4     3     2
 1.3395558000e-03     1     4     3     3
 3.1360000000e-07     1     4     3     5
-5.9200000000e-08     1     4     3     6
 4.7754139000e-03     1     4     3     7
 2.9139632600e-02     1     4     3     8
-4.0217390000e-04     1     4     3     9
-8.5727999600e-02     1     4     4     1
 8.4359379400e-02     1     4     4     2
 6.4448952800e-02     1     4     4     3
 3.4141700000e-05     1     4     4     5
-1.4566000000e-06     1     4     4     6
-1.7757091700e-02     1     4     4     7
 2.6028546000e-03     1     4     4     8
-1.9339400000e-05     1     4     4     9
-9.0372300000e-05     1     4     5     1
 5.0959300000e-05     1     4     5     2
 1.5251000000e-05     1     4     5     3
 1.9703400000e-03     1     4     5     5
-2.0518300000e-05     1     4     5     7
-8.5400000000e-06     1     4     5     8
-6.6659440000e-04     1     4     5     9
 3.4992000000e-06     1     4     6     1
-2.0281000000e-06     1     4     6     2
-5.7100000000e-07     1     4     6     3
 3.6000000000e-09     1     4     6     5
 1.9702865000e-03     1     4     6     6
 7.7060000000e-07     1     4     6     7
-3.1690000000e-07     1     4     6     8
-1.3178220000e-04     1     4     6     9
 1.3433142300e-02     1     4     7     1
-5.7287805000e-03     1     4     7     2
-2.6749230000e-03     1     4     7     3
 6.5190000000e-07     1     4     7     5
-9.2400000000e-08     1     4     7     6
 5.4130405000e-03     1     4     7     7
-2.7505298000e-03     1     4     7     8
 8.1787200000e-05     1     4     7     9
 7.1484674500e-02     1     4     8     1
-3.1204604700e-02     1     4     8     2
-1.3178757900e-02     1     4     8     3
-9.9900000000e-08     1     4     8     5
-4.5000000000e-09     1     4     8     6
 1.9234011300e-02     1     4     8     7
-7.8155540000e-04     1     4     8     8
-1.2871400000e-05     1     4     8     9
-8.4432550000e-04     1     4     9     1
 3.8138010000e-04     1     4     9     2
 1.5260580000e-04     1     4     9     3
-1.1903600000e-05     1     4     9     5
-2.3181000000e-06     1     4     9     6
-1.9994700000e-04     1     4     9     7
 3.6112800000e-05     1     4     9     8
 2.4108277000e-03     1     4     9     9
 8.0758000000e-06     1     5     2     1
-4.6130400000e-05     1     5     2     2
-5.5268000000e-06     1     5     2     3
-6.0990000000e-07     1     5     2     4
-4.5500000000e-08     1     5     2     6
-2.7978400000e-05     1     5     2     7
-1.3060510000e-04     1     5     2     8
-7.4217519000e-03     1     5     2     9
-6.3532000000e-06     1     5     3     1
 2.5051400000e-05     1     5     3     2
-2.1704800000e-05     1     5     3     3
-3.1360000000e-07     1     5     3     4
-3.2500000000e-08     1     5     3     6
-6.6544800000e-05     1     5     3     7
-3.6386910000e-04     1     5     3     8
-3.1405470000e-02     1     5     3     9
-9.0372300000e-05     1     5     4     1
 5.0349400000e-05     1     5     4     2
 1.4937400000e-05     1     5     4     3
-3.4141700000e-05     1     5     4     4
-3.6000000000e-09     1     5     4     6
-2.1170200000e-05     1     5     4     7
-8.4401000000e-06     1     5     4     8
-6.5469080000e-04     1     5     4     9
-9.3364640700e-02     1     5     5     1
 8.7232567100e-02     1     5     5     2
 6.6596051200e-02     1     5     5     3
-1.9703400000e-03     1     5     5     4
-1.3945000000e-06     1     5     5     6
-1.9331349200e-02     1     5     5     7
 2.3118091000e-03     1     5     5     8
 2.0395300000e-05     1     5     5     9
 6.5100000000e-08     1     5     6     1
-4.5200000000e-08     1     5     6     2
-4.3300000000e-08     1     5     6     3
-3.6000000000e-09     1     5     6     4
-3.2371800000e-05     1     5     6     6
 1.6300000000e-08     1     5     6     7
 5.6530000000e-07     1     5     6     8
-5.3354000000e-06     1     5     6     9
-1.9482240000e-04     1     5     7     1
 8.2212000000e-05     1     5     7     2
 3.8956600000e-05     1     5     7     3
-6.5190000000e-07     1     5     7     4
-3.9600000000e-08     1     5     7     6
-8.2829000000e-05     1     5     7     7
 2.9663000000e-05     1     5     7     8
 6.0902147000e-03     1     5     7     9
-9.2043820000e-04     1     5     8     1
 3.9949130000e-04     1     5     8     2
 1.6848710000e-04     1     5     8     3
 9.9900000000e-08     1     5     8     4
 5.6000000000e-09     1     5     8     6
-2.4760070000e-04     1     5     8     7
 1.4221000000e-06     1     5     8     8
-6.9114050000e-04     1     5     8     9
-6.8108490600e-02     1     5     9     1
 3.0668518000e-02     1     5     9     2
 1.2251223400e-02     1     5     9     3
 1.1903600000e-05     1     5     9     4
 1.0210000000e-07     1     5     9     6
-1.6114113800e-02     1     5     9     7
 2.8966207000e-03     1     5     9     8
-3.3875300000e-05     1     5     9     9
-3.2280000000e-07     1     6     2     1
 1.9387000000e-06     1     6     2     2
 2.0620000000e-07     1     6     2     3
 7.9600000000e-08     1     6     2     4
 4.5500000000e-08     1     6     2     5
 1.5510000000e-06     1     6     2     7
 4.5660000000e-06     1     6     2     8
-1.4548540000e-03     1     6     2     9
 6.2410000000e-07     1     6     3     1
-1.2365000000e-06     1     6     3     2
 7.4290000000e-07     1     6     3     3
 5.9200000000e-08     1     6     3     4
 3.2500000000e-08     1     6     3     5
 4.3279000000e-06     1     6     3     7
 1.1531100000e-05     1     6     3     8
-6.1558270000e-03     1     6     3     9
 3.4992000000e-06     1     6     4     1
-1.9485000000e-06     1     6     4     2
-5.1180000000e-07     1     6     4     3
 1.4566000000e-06     1     6     4     4
 3.6000000000e-09     1     6     4     5
 8.6300000000e-07     1     6     4     7
-3.1240000000e-07     1     6     4     8
-1.2946410000e-04     1     6     4     9
 6.5100000000e-08     1     6     5     1
 3.0000000000e-10     1     6     5     2
-1.0800000000e-08     1     6     5     3
 1.3945000000e-06     1     6     5     5
 5.5900000000e-08     1     6     5     7
 5.5970000000e-07     1     6     5     8
-5.4375000000e-06     1     6     5     9
-9.3364375800e-02     1     6     6     1
 8.7232287100e-02     1     6     6     2
 6.6595800700e-02     1     6     6     3
-1.9702865000e-03     1     6     6     4
 3.2371800000e-05     1     6     6     5
-1.9331035900e-02     1     6     6     7
 2.3122649000e-03     1     6     6     8
 2.1752000000e-06     1     6     6     9
 1.1815200000e-05     1     6     7     1
-5.0874000000e-06     1     6     7     2
-2.3673000000e-06     1     6     7     3
 9.2400000000e-08     1     6     7     4
 3.9600000000e-08     1     6     7     5
 4.2297000000e-06     1     6     7     7
-9.3740000000e-07     1     6     7     8
 1.1943061000e-03     1     6     7     9
 2.9962600000e-05     1     6     8     1
-1.2805900000e-05     1     6     8     2
-5.4008000000e-06     1     6     8     3
 4.5000000000e-09     1     6     8     4
-5.6000000000e-09     1     6     8     5
 8.1442000000e-06     1     6     8     7
 1.7200000000e-07     1     6     8     8
-1.3556960000e-04     1     6     8     9
-1.3347745500e-02     1     6     9     1
 6.0101075000e-03     1     6     9     2
 2.3998783000e-03     1     6     9     3
 2.3181000000e-06     1     6     9     4
-1.0210000000e-07     1     6     9     5
-3.1578836000e-03     1     6     9     7
 5.6751650000e-04     1     6     9     8
 3.3682000000e-06     1     6     9     9
 1.1740171000e-03     1     7     2     1
 6.3361310000e-04     1     7     2     2
-6.3776631000e-03     1     7     2     3
-1.8772765000e-03     1     7     2     4
 2.7978400000e-05     1     7     2     5
-1.5510000000e-06     1     7     2     6
-2.6057360000e-04     1     7     2     8
-1.1645000000e-06     1     7     2     9
 7.9999547300e-02     1     7     3     1
-4.5527438500e-02     1     7     3     2
-4.1841692200e-02     1     7     3     3
-4.7754139000e-03     1     7     3     4
 6.6544800000e-05     1     7     3     5
-4.3279000000e-06     1     7     3     6
-4.7785000000e-06     1     7     3     8
 2.8220000000e-07     1     7     3     9
 1.3433142300e-02     1     7     4     1
-7.6060570000e-03     1     7     4     2
-7.4503369000e-03     1     7     4     3
 1.7757091700e-02     1     7     4     4
 2.1170200000e-05     1     7     4     5
-8.6300000000e-07     1     7     4     6
-2.1984541100e-02     1     7     4     8
 2.8173420000e-04     1     7     4     9
-1.9482240000e-04     1     7     5     1
 1.1019040000e-04     1     7     5     2
 1.0550140000e-04     1     7     5     3
 2.0518300000e-05     1     7     5     4
 1.9331349200e-02     1     7     5     5
-5.5900000000e-08     1     7     5     6
 2.7726370000e-04     1     7     5     8
 2.2204328500e-02     1     7     5     9
 1.1815200000e-05     1     7     6     1
-6.6384000000e-06     1     7     6     2
-6.6952000000e-06     1     7     6     3
-7.7060000000e-07     1     7     6     4
-1.6300000000e-08     1     7     6     5
 1.9331035900e-02     1     7     6     6
-9.0816000000e-06     1     7     6     8
 4.3521897000e-03     1     7     6     9
-1.3364283690e-01     1     7     7     1
 1.0517814330e-01     1     7     7     2
 7.0349627400e-02     1     7     7     3
-5.4130405000e-03     1     7     7     4
 8.2829000000e-05     1     7     7     5
-4.2297000000e-06     1     7     7     6
 1.2836842000e-03     1     7     7     8
-2.1244000000e-06     1     7     7     9
 3.3074716000e-03     1     7     8     1
-3.2866903000e-03     1     7     8     2
-9.6486930000e-04     1     7     8     3
-1.9234011300e-02     1     7     8     4
 2.4760070000e-04     1     7     8     5
-8.1442000000e-06     1     7     8     6
 1.1996467000e-02     1     7     8     8
-8.9901000000e-06     1     7     8     9
 1.6426800000e-05     1     7     9     1
-1.4730400000e-05     1     7     9     2
-4.9846000000e-06     1     7     9     3
 1.9994700000e-04     1     7     9     4
 1.6114113800e-02     1     7     9     5
 3.1578836000e-03     1     7     9     6
-8.4293000000e-06     1     7     9     8
 1.3044559100e-02     1     7     9     9
-1.6796844000e-03     1     8     2     1
 1.2610583000e-03     1     8     2     2
 9.8619180000e-04     1     8     2     3
-9.6321649000e-03     1     8     2     4
 1.3060510000e-04     1     8     2     5
-4.5660000000e-06     1     8     2     6
 2.6057360000e-04     1     8     2     7
-3.9340000000e-07     1     8     2     9
-1.5017994000e-02     1     8     3     1
 6.1055316000e-03     1     8     3     2
 8.7400918000e-03     1     8     3     3
-2.9139632600e-02     1     8     3     4
 3.6386910000e-04     1     8     3     5
-1.1531100000e-05     1     8     3     6
 4.7785000000e-06     1     8     3     7
 9.1930000000e-07     1     8     3     9
 7.1484674500e-02     1     8     4     1
-4.0836769600e-02     1     8     4     2
-4.2318390500e-02     1     8     4     3
-2.6028546000e-03     1     8     4     4
 8.4401000000e-06     1     8     4     5
 3.1240000000e-07     1     8     4     6
 2.1984541100e-02     1     8     4     7
-4.8984200000e-05     1     8     4     9
-9.2043820000e-04     1     8     5     1
 5.3009640000e-04     1     8     5     2
 5.3235620000e-04     1     8     5     3
 8.5400000000e-06     1     8     5     4
-2.3118091000e-03     1     8     5     5
-5.5970000000e-07     1     8     5     6
-2.7726370000e-04     1     8     5     7
-3.5877612000e-03     1     8     5     9
 2.9962600000e-05     1     8     6     1
-1.7371900000e-05     1     8     6     2
-1.6931900000e-05     1     8     6     3
 3.1690000000e-07     1     8     6     4
-5.6530000000e-07     1     8     6     5
-2.3122649000e-03     1     8     6     6
 9.0816000000e-06     1     8     6     7
-7.0308610000e-04     1     8     6     9
 3.3074716000e-03     1     8     7     1
-3.0261167000e-03     1     8     7     2
-9.6009080000e-04     1     8     7     3
 2.7505298000e-03     1     8     7     4
-2.9663000000e-05     1     8     7     5
 9.3740000000e-07     1     8     7     6
-1.2836842000e-03     1     8     7     7
-5.6080000000e-07     1     8     7     9
-1.2525300990e-01     1     8     8     1
 1.0171373610e-01     1     8     8     2
 6.9312333500e-02     1     8     8     3
 7.8155540000e-04     1     8     8     4
-1.4221000000e-06     1     8     8     5
-1.7200000000e-07     1     8     8     6
-1.1996467000e-02     1     8     8     7
 3.9990000000e-07     1     8     8     9
 5.8833100000e-05     1     8     9     1
-3.8688400000e-05     1     8     9     2
-1.5293100000e-05     1     8     9     3
-3.6112800000e-05     1     8     9     4
-2.8966207000e-03     1     8     9     5
-5.6751650000e-04     1     8     9     6
 8.4293000000e-06     1     8     9     7
-1.6359999000e-03     1     8     9     9
-5.7401000000e-06     1     9     2     1
 5.5980000000e-06     1     9     2     2
 1.2276000000e-06     1     9     2     3
 8.6103900000e-05     1     9     2     4
 7.4217519000e-03     1     9     2     5
 1.4548540000e-03     1     9     2     6
 1.1645000000e-06     1     9     2     7
 3.9340000000e-07     1     9     2     8
-2.2613700000e-05     1     9     3     1
 3.9505000000e-06     1     9     3     2
 1.5581900000e-05     1     9     3     3
 4.0217390000e-04     1     9     3     4
 3.1405470000e-02     1     9     3     5
 6.1558270000e-03     1     9     3     6
-2.8220000000e-07     1     9     3     7
-9.1930000000e-07     1     9     3     8
-8.4432550000e-04     1     9     4     1
 4.6748400000e-04     1     9     4     2
 5.5477970000e-04     1     9     4     3
 1.9339400000e-05     1     9     4     4
 6.5469080000e-04     1     9     4     5
 1.2946410000e-04     1     9     4     6
-2.8173420000e-04     1     9     4     7
 4.8984200000e-05     1     9     4     8
-6.8108490600e-02     1     9     5     1
 3.8090269900e-02     1     9     5     2
 4.3656693400e-02     1     9     5     3
 6.6659440000e-04     1     9     5     4
-2.0395300000e-05     1     9     5     5
 5.4375000000e-06     1     9     5     6
-2.2204328500e-02     1     9     5     7
 3.5877612000e-03     1     9     5     8
-1.3347745500e-02     1     9     6     1
 7.4649615000e-03     1     9     6     2
 8.5557053000e-03     1     9     6     3
 1.3178220000e-04     1     9     6     4
 5.3354000000e-06     1     9     6     5
-2.1752000000e-06     1     9     6     6
-4.3521897000e-03     1     9     6     7
 7.0308610000e-04     1     9     6     8
 1.6426800000e-05     1     9     7     1
-1.3565900000e-05     1     9     7     2
-5.2668000000e-06     1     9     7     3
-8.1787200000e-05     1     9     7     4
-6.0902147000e-03     1     9     7     5
-1.1943061000e-03     1     9     7     6
 2.1244000000e-06     1     9     7     7
 5.6080000000e-07     1     9     7     8
 5.8833100000e-05     1     9     8     1
-3.8295000000e-05     1     9     8     2
-1.6212400000e-05     1     9     8     3
 1.2871400000e-05     1     9     8     4
 6.9114050000e-04     1     9     8     5
 1.3556960000e-04     1     9     8     6
 8.9901000000e-06     1     9     8     7
-3.9990000000e-07     1     9     8     8
-1.4484466900e-01     1     9     9     1
 1.1221077230e-01     1     9     9     2
 7.7009327200e-02     1     9     9     3
-2.4108277000e-03     1     9     9     4
 3.3875300000e-05     1     9     9     5
-3.3682000000e-06     1     9     9     6
-1.3044559100e-02     1     9     9     7
 1.6359999000e-03     1     9     9     8
 7.7404816700e-02     2     1     1     2
-3.2911183600e-02     2     1     1     3
-4.9172090000e-04     2     1     1     4
 8.0758000000e-06     2     1     1     5
-3.2280000000e-07     2     1     1     6
 1.1740171000e-03     2     1     1     7
-1.6796844000e-03     2     1     1     8
-5.7401000000e-06     2     1     1     9
-1.9279512300e-02     2     1     3     2
-6.3699259900e-02     2     1     3     3
 1.8673831000e-03     2     1     3     4
-3.0578200000e-05     2     1     3     5
 1.4427000000e-06     2     1     3     6
 3.9149775400e-02     2     1     3     7
-5.1193398000e-03     2     1     3     8
-2.7229000000e-06     2     1     3     9
-2.7844020000e-03     2     1     4     2
 1.5388562000e-03     2     1     4     3
-8.4359379400e-02     2     1     4     4
-5.0959300000e-05     2     1     4     5
 2.0281000000e-06     2     1     4     6
 5.7287805000e-03     2     1     4     7
 3.1204604700e-02     2     1     4     8
-3.8138010000e-04     2     1     4     9
 4.6130400000e-05     2     1     5     2
-2.5051400000e-05     2     1     5     3
-5.0349400000e-05     2     1     5     4
-8.7232567100e-02     2     1     5     5
 4.5200000000e-08     2     1     5     6
-8.2212000000e-05     2     1     5     7
-3.9949130000e-04     2     1     5     8
-3.0668518000e-02     2     1     5     9
-1.9387000000e-06     2     1     6     2
 1.2365000000e-06     2     1     6     3
 1.9485000000e-06     2     1     6     4
-3.0000000000e-10     2     1     6     5
-8.7232287100e-02     2     1     6     6
 5.0874000000e-06     2     1     6     7
 1.2805900000e-05     2     1     6     8
-6.0101075000e-03     2     1     6     9
-6.3361310000e-04     2     1     7     2
 4.5527438500e-02     2     1     7     3
 7.6060570000e-03     2     1     7     4
-1.1019040000e-04     2     1     7     5
 6.6384000000e-06     2     1     7     6
-1.0517814330e-01     2     1     7     7
 3.2866903000e-03     2     1     7     8
 1.4730400000e-05     2     1     7     9
-1.2610583000e-03     2     1     8     2
-6.1055316000e-03     2     1     8     3
 4.0836769600e-02     2     1     8     4
-5.3009640000e-04     2     1     8     5
 1.7371900000e-05     2     1     8     6
 3.0261167000e-03     2     1     8     7
-1.0171373610e-01     2     1     8     8
 3.8688400000e-05     2     1     8     9
-5.5980000000e-06     2     1     9     2
-3.9505000000e-06     2     1     9     3
-4.6748400000e-04     2     1     9     4
-3.8090269900e-02     2     1     9     5
-7.4649615000e-03     2     1     9     6
 1.3565900000e-05     2     1     9     7
 3.8295000000e-05     2     1     9     8
-1.1221077230e-01     2     1     9     9
-7.7404816700e-02     2     2     1     1
 1.9279512300e-02     2     2     1     3
 2.7844020000e-03     2     2     1     4
-4.6130400000e-05     2     2     1     5
 1.9387000000e-06     2     2     1     6
 6.3361310000e-04     2     2     1     7
 1.2610583000e-03     2     2     1     8
 5.5980000000e-06     2     2     1     9
 1.9279512300e-02     2     2     3     1
-5.3568107200e-02     2     2     3     3
-1.2812880000e-04     2     2     3     4
 2.2289000000e-06     2     2     3     5
-2.0310000000e-07     2     2     3     6
-2.4055038600e-02     2     2     3     7
 4.9658421000e-03     2     2     3     8
 8.6711000000e-06     2     2     3     9
 2.7844020000e-03     2     2     4     1
-1.2812880000e-04     2     2     4     3
-2.5545441200e-02     2     2     4     4
-1.3842400000e-05     2     2     4     5
 6.3870000000e-07     2     2     4     6
-3.5338606000e-03     2     2     4     7
-1.8929635700e-02     2     2     4     8
 2.5175000000e-04     2     2     4     9
-4.6130400000e-05     2     2     5     1
 2.2289000000e-06     2     2     5     3
-1.3842400000e-05     2     2     5     4
-2.5708432600e-02     2     2     5     5
-2.7200000000e-08     2     2     5     6
 5.0330500000e-05     2     2     5     7
 2.3621410000e-04     2     2     5     8
 1.9658547900e-02     2     2     5     9
 1.9387000000e-06     2     2     6     1
-2.0310000000e-07     2     2     6     3
 6.3870000000e-07     2     2     6     4
-2.7200000000e-08     2     2     6     5
-2.5709046200e-02     2     2     6     6
-3.1725000000e-06     2     2     6     7
-7.4497000000e-06     2     2     6     8
 3.8524042000e-03     2     2     6     9
 6.3361310000e-04     2     2     7     1
-2.4055038600e-02     2     2     7     3
-3.5338606000e-03     2     2     7     4
 5.0330500000e-05     2     2     7     5
-3.1725000000e-06     2     2     7     6
-1.7346637700e-02     2     2     7     7
-2.6337310000e-04     2     2     7     8
-1.7032000000e-06     2     2     7     9
 1.2610583000e-03     2     2     8     1
 4.9658421000e-03     2     2     8     3
-1.8929635700e-02     2     2     8     4
 2.3621410000e-04     2     2     8     5
-7.4497000000e-06     2     2     8     6
-2.6337310000e-04     2     2     8     7
-1.9042922600e-02     2     2     8     8
-1.0921500000e-05     2     2     8     9
 5.5980000000e-06     2     2     9     1
 8.6711000000e-06     2     2     9     3
 2.5175000000e-04     2     2     9     4
 1.9658547900e-02     2     2     9     5
 3.8524042000e-03     2     2     9     6
-1.7032000000e-06     2     2     9     7
-1.0921500000e-05     2     2     9     8
-1.4344376200e-02     2     2     9     9
 3.2911183600e-02     2     3     1     1
-1.9279512300e-02     2     3     1     2
 3.2852690000e-04     2     3     1     4
-5.5268000000e-06     2     3     1     5
 2.0620000000e-07     2     3     1     6
-6.3776631000e-03     2     3     1     7
 9.8619180000e-04     2     3     1     8
 1.2276000000e-06     2     3     1     9
 6.3699259900e-02     2     3     3     1
 5.3568107200e-02     2     3     3     2