&FCI NORB=  9,NELEC=  2,MS2=0,
 ORBSYM=1,1,1,1,1,1,1,1,1
 ISYM=1,
&END
 1.0057292260e-01     1     1     2     2
 9.7778065000e-03     1     1     2     3
-2.2866410000e-04     1     1     2     4
 1.2434660000e-04     1     1     2     5
-8.4262893600e-02     1     1     2     6
-3.3276300000e-05     1     1     2     7
-8.6294000000e-06     1     1     2     8
-1.7146249500e-02     1     1     2     9
 9.7778065000e-03     1     1     3     2
 1.3404795770e-01     1     1     3     3
-7.1365800000e-05     1     1     3     4
 3.8783700000e-05     1     1     3     5
 1.8761840000e-04     1     1     3     6
 1.4802201000e-03     1     1     3     7
 1.0444946000e-03     1     1     3     8
 6.1131783100e-02     1     1     3     9
-2.2866410000e-04     1     1     4     2
-7.1365800000e-05     1     1     4     3
 1.3090342690e-01     1     1     4     4
-9.4880000000e-07     1     1     4     5
-1.0950000000e-07     1     1     4     6
 2.7004805800e-02     1     1     4     7
 5.6976116700e-02     1     1     4     8
-1.5323797000e-03     1     1     4     9
 1.2434660000e-04     1     1     5     2
 3.8783700000e-05     1     1     5     3
-9.4880000000e-07     1     1     5     4
 1.3090162470e-01     1     1     5     5
 4.5122000000e-06     1     1     5     6
-5.7020275200e-02     1     1     5     7
 2.7015307600e-02     1     1     5     8
 8.6551700000e-04     1     1     5     9
-8.4262893600e-02     1     1     6     2
 1.8761840000e-04     1     1     6     3
-1.0950000000e-07     1     1     6     4
 4.5122000000e-06     1     1     6     5
 1.8282629520e-01     1     1     6     6
-9.0132000000e-06     1     1     6     7
-4.7077000000e-06     1     1     6     8
-6.5364993000e-03     1     1     6     9
-3.3276300000e-05     1     1     7     2
 1.4802201000e-03     1     1     7     3
 2.7004805800e-02     1     1     7     4
-5.7020275200e-02     1     1     7     5
-9.0132000000e-06     1     1     7     6
 1.8147537700e-01     1     1     7     7
-1.8964000000e-06     1     1     7     8
-2.1082000000e-06     1     1     7     9
-8.6294000000e-06     1     1     8     2
 1.0444946000e-03     1     1     8     3
 5.6976116700e-02     1     1     8     4
 2.7015307600e-02     1     1     8     5
-4.7077000000e-06     1     1     8     6
-1.8964000000e-06     1     1     8     7
 1.8140964570e-01     1     1     8     8
-3.2183000000e-06     1     1     8     9
-1.7146249500e-02     1     1     9     2
 6.1131783100e-02     1     1     9     3
-1.5323797000e-03     1     1     9     4
 8.6551700000e-04     1     1     9     5
-6.5364993000e-03     1     1     9     6
-2.1082000000e-06     1     1     9     7
-3.2183000000e-06     1     1     9     8
 2.0445456520e-01     1     1     9     9
-1.0057292260e-01     1     2     2     1
-4.0740728000e-02     1     2     2     3
 9.6708080000e-04     1     2     2     4
-5.2547920000e-04     1     2     2     5
 5.5764731500e-02     1     2     2     6
-1.0401000000e-05     1     2     2     7
-8.0684000000e-06     1     2     2     8
-1.0017865100e-02     1     2     2     9
-9.7778065000e-03     1     2     3     1
-8.2965583400e-02     1     2     3     3
 6.4227600000e-05     1     2     3     4
-3.4886400000e-05     1     2     3     5
-1.3236969900e-02     1     2     3     6
-1.2501449000e-03     1     2     3     7
-8.8679410000e-04     1     2     3     8
-5.1969421300e-02     1     2     3     9
 2.2866410000e-04     1     2     4     1
 6.2304800000e-05     1     2     4     3
-8.0439460600e-02     1     2     4     4
 9.7850000000e-07     1     2     4     5
 3.1655910000e-04     1     2     4     6
-2.2991871700e-02     1     2     4     7
-4.8532169800e-02     1     2     4     8
 1.3057931000e-03     1     2     4     9
-1.2434660000e-04     1     2     5     1
-3.3852000000e-05     1     2     5     3
 7.4130000000e-07     1     2     5     4
-8.0438080100e-02     1     2     5     5
-1.7568940000e-04     1     2     5     6
 4.8547806700e-02     1     2     5     7
-2.3008675300e-02     1     2     5     8
-7.3338080000e-04     1     2     5     9
 8.4262893600e-02     1     2     6     1
-3.1012033000e-03     1     2     6     3
 7.5353300000e-05     1     2     6     4
-4.2322300000e-05     1     2     6     5
-9.0289502000e-02     1     2     6     6
 1.1111200000e-05     1     2     6     7
 4.7118000000e-06     1     2     6     8
 1.1317560000e-02     1     2     6     9
 3.3276300000e-05     1     2     7     1
-4.4744980000e-04     1     2     7     3
-8.2932497000e-03     1     2     7     4
 1.7515641800e-02     1     2     7     5
-2.8102000000e-06     1     2     7     6
-8.7122052600e-02     1     2     7     7
 1.6939000000e-06     1     2     7     8
-6.3388000000e-06     1     2     7     9
 8.6294000000e-06     1     2     8     1
-3.1784730000e-04     1     2     8     3
-1.7511052200e-02     1     2     8     4
-8.2995581000e-03     1     2     8     5
-7.8360000000e-07     1     2     8     6
 6.0770000000e-07     1     2     8     7
-8.7076276300e-02     1     2     8     8
-3.1388000000e-06     1     2     8     9
 1.7146249500e-02     1     2     9     1
-1.7787922600e-02     1     2     9     3
 4.4709570000e-04     1     2     9     4
-2.5137320000e-04     1     2     9     5
 1.4071618000e-03     1     2     9     6
-8.3249000000e-06     1     2     9     7
-5.0822000000e-06     1     2     9     8
-1.0066129610e-01     1     2     9     9
-9.7778065000e-03     1     3     2     1
 4.0740728000e-02     1     3     2     2
 1.9228000000e-06     1     3     2     4
-1.0344000000e-06     1     3     2     5
-1.0135766600e-02     1     3     2     6
-8.0269510000e-04     1     3     2     7
-5.6894680000e-04     1     3     2     8
-3.4181498700e-02     1     3     2     9
-1.3404795770e-01     1     3     3     1
 8.2965583400e-02     1     3     3     2
 1.0025909000e-03     1     3     3     4
-5.4468740000e-04     1     3     3     5
-2.5901052700e-02     1     3     3     6
-2.1515710000e-04     1     3     3     7
-1.6261410000e-04     1     3     3     8
-1.0866735000e-03     1     3     3     9
 7.1365800000e-05     1     3     4     1
-6.2304800000e-05     1     3     4     2
 4.2152077400e-02     1     3     4     4
-3.6400000000e-08     1     3     4     5
 2.1251620000e-04     1     3     4     6
-1.9757695000e-03     1     3     4     7
-4.2087204000e-03     1     3     4     8
 2.1452880000e-04     1     3     4     9
-3.8783700000e-05     1     3     5     1
 3.3852000000e-05     1     3     5     2
 8.5300000000e-08     1     3     5     4
 4.2151971500e-02     1     3     5     5
-1.1569820000e-04     1     3     5     6
 4.1759925000e-03     1     3     5     7
-1.9936637000e-03     1     3     5     8
-1.1215220000e-04     1     3     5     9
-1.8761840000e-04     1     3     6     1
 3.1012033000e-03     1     3     6     2
 1.7956000000e-06     1     3     6     4
-9.1480000000e-07     1     3     6     5
 4.1455066800e-02     1     3     6     6
 1.1263780000e-04     1     3     6     7
 7.6839500000e-05     1     3     6     8
 1.3812549400e-02     1     3     6     9
-1.4802201000e-03     1     3     7     1
 4.4744980000e-04     1     3     7     2
 2.8334350000e-04     1     3     7     4
-5.9625110000e-04     1     3     7     5
-4.1236310000e-04     1     3     7     6
 4.5940708800e-02     1     3     7     7
-7.3460000000e-07     1     3     7     8
 7.1473300000e-05     1     3     7     9
-1.0444946000e-03     1     3     8     1
 3.1784730000e-04     1     3     8     2
 5.9515330000e-04     1     3     8     4
 2.8256130000e-04     1     3     8     5
-2.9551240000e-04     1     3     8     6
 8.1400000000e-08     1     3     8     7
 4.5937592700e-02     1     3     8     8
 5.4093100000e-05     1     3     8     9
-6.1131783100e-02     1     3     9     1
 1.7787922600e-02     1     3     9     2
-1.3190000000e-06     1     3     9     4
 1.2107000000e-06     1     3     9     5
-8.9653848000e-03     1     3     9     6
 4.4410500000e-05     1     3     9     7
 3.2380700000e-05     1     3     9     8
 4.7699733200e-02     1     3     9     9
 2.2866410000e-04     1     4     2     1
-9.6708080000e-04     1     4     2     2
-1.9228000000e-06     1     4     2     3
 2.3720000000e-07     1     4     2     5
 2.4120580000e-04     1     4     2     6
-1.4698622000e-02     1     4     2     7
-3.1021117600e-02     1     4     2     8
 8.5869740000e-04     1     4     2     9
 7.1365800000e-05     1     4     3     1
-6.4227600000e-05     1     4     3     2
-1.0025909000e-03     1     4     3     3
-1.2170000000e-07     1     4     3     5
 2.1072060000e-04     1     4     3     6
-2.2591130000e-03     1     4     3     7
-4.8038737000e-03     1     4     3     8
 2.1584780000e-04     1     4     3     9
-1.3090342690e-01     1     4     4     1
 8.0439460600e-02     1     4     4     2
-4.2152077400e-02     1     4     4     3
-5.4186840000e-04     1     4     4     5
-1.7030561600e-02     1     4     4     6
 1.0895250000e-04     1     4     4     7
 2.1610030000e-04     1     4     4     8
 7.8010098000e-03     1     4     4     9
 9.4880000000e-07     1     4     5     1
-7.4130000000e-07     1     4     5     2
-8.5300000000e-08     1     4     5     3
-9.9738950000e-04     1     4     5     5
 2.6687000000e-06     1     4     5     6
-1.2820880000e-04     1     4     5     7
-1.5802400000e-05     1     4     5     8
 2.5667000000e-06     1     4     5     9
 1.0950000000e-07     1     4     6     1
-7.5353300000e-05     1     4     6     2
-1.7956000000e-06     1     4     6     3
 1.2350000000e-07     1     4     6     5
-9.8318840000e-04     1     4     6     6
 1.9767884000e-03     1     4     6     7
 4.1601323000e-03     1     4     6     8
-3.4254700000e-04     1     4     6     9
-2.7004805800e-02     1     4     7     1
 8.2932497000e-03     1     4     7     2
-2.8334350000e-04     1     4     7     3
 1.1700800000e-05     1     4     7     5
-7.7168110000e-03     1     4     7     6
-1.0847132000e-03     1     4     7     7
 1.2084900000e-05     1     4     7     8
 1.7657313000e-03     1     4     7     9
-5.6976116700e-02     1     4     8     1
 1.7511052200e-02     1     4     8     2
-5.9515330000e-04     1     4     8     3
-1.6110400000e-05     1     4     8     5
-1.6296812600e-02     1     4     8     6
 1.1210600000e-05     1     4     8     7
-1.0724707000e-03     1     4     8     8
 3.7361066000e-03     1     4     8     9
 1.5323797000e-03     1     4     9     1
-4.4709570000e-04     1     4     9     2
 1.3190000000e-06     1     4     9     3
 8.2600000000e-08     1     4     9     5
 2.3088710000e-04     1     4     9     6
 1.2070373000e-03     1     4     9     7
 2.5512697000e-03     1     4     9     8
-1.1573530000e-03     1     4     9     9
-1.2434660000e-04     1     5     2     1
 5.2547920000e-04     1     5     2     2
 1.0344000000e-06     1     5     2     3
-2.3720000000e-07     1     5     2     4
-1.3336710000e-04     1     5     2     6
 3.1032164900e-02     1     5     2     7
-1.4709117200e-02     1     5     2     8
-4.8200760000e-04     1     5     2     9
-3.8783700000e-05     1     5     3     1
 3.4886400000e-05     1     5     3     2
 5.4468740000e-04     1     5     3     3
 1.2170000000e-07     1     5     3     4
-1.1478340000e-04     1     5     3     6
 4.7722436000e-03     1     5     3     7
-2.2762250000e-03     1     5     3     8
-1.1336290000e-04     1     5     3     9
 9.4880000000e-07     1     5     4     1
-9.7850000000e-07     1     5     4     2
 3.6400000000e-08     1     5     4     3
 5.4186840000e-04     1     5     4     4
 2.5452000000e-06     1     5     4     6
-1.3990960000e-04     1     5     4     7
 3.0800000000e-07     1     5     4     8
 2.4841000000e-06     1     5     4     9
-1.3090162470e-01     1     5     5     1
 8.0438080100e-02     1     5     5     2
-4.2151971500e-02     1     5     5     3
 9.9738950000e-04     1     5     5     4
-1.7026750600e-02     1     5     5     6
 1.2496090000e-04     1     5     5     7
-4.2370800000e-05     1     5     5     8
 7.8052055000e-03     1     5     5     9
-4.5122000000e-06     1     5     6     1
 4.2322300000e-05     1     5     6     2
 9.1480000000e-07     1     5     6     3
-1.2350000000e-07     1     5     6     4
 5.3289570000e-04     1     5     6     6
-4.1715720000e-03     1     5     6     7
 1.9741770000e-03     1     5     6     8
 1.9032150000e-04     1     5     6     9
 5.7020275200e-02     1     5     7     1
-1.7515641800e-02     1     5     7     2
 5.9625110000e-04     1     5     7     3
-1.1700800000e-05     1     5     7     4
 1.6294525300e-02     1     5     7     6
 5.7955630000e-04     1     5     7     7
 3.0746000000e-06     1     5     7     8
-3.7284281000e-03     1     5     7     9
-2.7015307600e-02     1     5     8     1
 8.2995581000e-03     1     5     8     2
-2.8256130000e-04     1     5     8     3
 1.6110400000e-05     1     5     8     4
-7.7254886000e-03     1     5     8     6
 5.3907000000e-06     1     5     8     7
 5.9105060000e-04     1     5     8     8
 1.7705611000e-03     1     5     8     9
-8.6551700000e-04     1     5     9     1
 2.5137320000e-04     1     5     9     2
-1.2107000000e-06     1     5     9     3
-8.2600000000e-08     1     5     9     4
-1.3184430000e-04     1     5     9     6
-2.5495222000e-03     1     5     9     7
 1.2092594000e-03     1     5     9     8
 6.3014410000e-04     1     5     9     9
 8.4262893600e-02     1     6     2     1
-5.5764731500e-02     1     6     2     2
 1.0135766600e-02     1     6     2     3
-2.4120580000e-04     1     6     2     4
 1.3336710000e-04     1     6     2     5
 1.3921400000e-05     1     6     2     7
 5.4954000000e-06     1     6     2     8
 9.9103982000e-03     1     6     2     9
-1.8761840000e-04     1     6     3     1
 1.3236969900e-02     1     6     3     2
 2.5901052700e-02     1     6     3     3
-2.1072060000e-04     1     6     3     4
 1.1478340000e-04     1     6     3     5
 5.2500090000e-04     1     6     3     7
 3.7235190000e-04     1     6     3     8
 2.2777934200e-02     1     6     3     9
 1.0950000000e-07     1     6     4     1
-3.1655910000e-04     1     6     4     2
-2.1251620000e-04     1     6     4     3
 1.7030561600e-02     1     6     4     4
-2.5452000000e-06     1     6     4     5
 9.6935994000e-03     1     6     4     7
 2.0456944900e-02     1     6     4     8
-5.7343410000e-04     1     6     4     9
-4.5122000000e-06     1     6     5     1
 1.7568940000e-04     1     6     5     2
 1.1569820000e-04     1     6     5     3
-2.6687000000e-06     1     6     5     4
 1.7026750600e-02     1     6     5     5
-2.0466097300e-02     1     6     5     7
 9.6996656000e-03     1     6     5     8
 3.2216580000e-04     1     6     5     9
-1.8282629520e-01     1     6     6     1
 9.0289502000e-02     1     6     6     2
-4.1455066800e-02     1     6     6     3
 9.8318840000e-04     1     6     6     4
-5.3289570000e-04     1     6     6     5
 1.1742000000e-06     1     6     6     7
 9.5180000000e-07     1     6     6     8
-4.7212610000e-04     1     6     6     9
 9.0132000000e-06     1     6     7     1
 2.8102000000e-06     1     6     7     2
 4.1236310000e-04     1     6     7     3
 7.7168110000e-03     1     6     7     4
-1.6294525300e-02     1     6     7     5
 8.4130023000e-03     1     6     7     7
-8.0070000000e-07     1     6     7     8
 3.9950000000e-07     1     6     7     9
 4.7077000000e-06     1     6     8     1
 7.8360000000e-07     1     6     8     2
 2.9551240000e-04     1     6     8     3
 1.6296812600e-02     1     6     8     4
 7.7254886000e-03     1     6     8     5
-1.0880000000e-07     1     6     8     7
 8.3994925000e-03     1     6     8     8
 8.9800000000e-07     1     6     8     9
 6.5364993000e-03     1     6     9     1
-1.4071618000e-03     1     6     9     2
 8.9653848000e-03     1     6     9     3
-2.3088710000e-04     1     6     9     4
 1.3184430000e-04     1     6     9     5
 2.9066000000e-06     1     6     9     7
 1.6612000000e-06     1     6     9     8
 1.1406377000e-02     1     6     9     9
 3.3276300000e-05     1     7     2     1
 1.0401000000e-05     1     7     2     2
 8.0269510000e-04     1     7     2     3
 1.4698622000e-02     1     7     2     4
-3.1032164900e-02     1     7     2     5
-1.3921400000e-05     1     7     2     6
 1.0862000000e-06     1     7     2     8
 1.9861000000e-06     1     7     2     9
-1.4802201000e-03     1     7     3     1
 1.2501449000e-03     1     7     3     2
 2.1515710000e-04     1     7     3     3
 2.2591130000e-03     1     7     3     4
-4.7722436000e-03     1     7     3     5
-5.2500090000e-04     1     7     3     6
-8.1600000000e-07     1     7     3     8
 2.7062800000e-05     1     7     3     9
-2.7004805800e-02     1     7     4     1
 2.2991871700e-02     1     7     4     2
 1.9757695000e-03     1     7     4     3
-1.0895250000e-04     1     7     4     4
 1.3990960000e-04     1     7     4     5
-9.6935994000e-03     1     7     4     6
 8.7430000000e-07     1     7     4     8
 5.5869400000e-04     1     7     4     9
 5.7020275200e-02     1     7     5     1
-4.8547806700e-02     1     7     5     2
-4.1759925000e-03     1     7     5     3
 1.2820880000e-04     1     7     5     4
-1.2496090000e-04     1     7     5     5
 2.0466097300e-02     1     7     5     6
-2.3161000000e-06     1     7     5     8
-1.1789059000e-03     1     7     5     9
 9.0132000000e-06     1     7     6     1
-1.1111200000e-05     1     7     6     2
-1.1263780000e-04     1     7     6     3
-1.9767884000e-03     1     7     6     4
 4.1715720000e-03     1     7     6     5
-1.1742000000e-06     1     7     6     6
-6.9190000000e-07     1     7     6     8
-2.5071000000e-06     1     7     6     9
-1.8147537700e-01     1     7     7     1
 8.7122052600e-02     1     7     7     2
-4.5940708800e-02     1     7     7     3
 1.0847132000e-03     1     7     7     4
-5.7955630000e-04     1     7     7     5
-8.4130023000e-03     1     7     7     6
 2.2024000000e-06     1     7     7     8
 1.8442751000e-03     1     7     7     9
 1.8964000000e-06     1     7     8     1
-6.0770000000e-07     1     7     8     2
-8.1400000000e-08     1     7     8     3
-1.1210600000e-05     1     7     8     4
-5.3907000000e-06     1     7     8     5
 1.0880000000e-07     1     7     8     6
-2.5701000000e-06     1     7     8     8
 2.8790000000e-07     1     7     8     9
 2.1082000000e-06     1     7     9     1
 8.3249000000e-06     1     7     9     2
-4.4410500000e-05     1     7     9     3
-1.2070373000e-03     1     7     9     4
 2.5495222000e-03     1     7     9     5
-2.9066000000e-06     1     7     9     6
 2.9840000000e-07     1     7     9     8
-1.4616000000e-06     1     7     9     9
 8.6294000000e-06     1     8     2     1
 8.0684000000e-06     1     8     2     2
 5.6894680000e-04     1     8     2     3
 3.1021117600e-02     1     8     2     4
 1.4709117200e-02     1     8     2     5
-5.4954000000e-06     1     8     2     6
-1.0862000000e-06     1     8     2     7
 1.9434000000e-06     1     8     2     9
-1.0444946000e-03     1     8     3     1
 8.8679410000e-04     1     8     3     2
 1.6261410000e-04     1     8     3     3
 4.8038737000e-03     1     8     3     4
 2.2762250000e-03     1     8     3     5
-3.7235190000e-04     1     8     3     6
 8.1600000000e-07     1     8     3     7
 2.1712400000e-05     1     8     3     9
-5.6976116700e-02     1     8     4     1
 4.8532169800e-02     1     8     4     2
 4.2087204000e-03     1     8     4     3
-2.1610030000e-04     1     8     4     4
-3.0800000000e-07     1     8     4     5
-2.0456944900e-02     1     8     4     6
-8.7430000000e-07     1     8     4     7
 1.1848369000e-03     1     8     4     9
-2.7015307600e-02     1     8     5     1
 2.3008675300e-02     1     8     5     2
 1.9936637000e-03     1     8     5     3
 1.5802400000e-05     1     8     5     4
 4.2370800000e-05     1     8     5     5
-9.6996656000e-03     1     8     5     6
 2.3161000000e-06     1     8     5     7
 5.6130170000e-04     1     8     5     9
 4.7077000000e-06     1     8     6     1
-4.7118000000e-06     1     8     6     2
-7.6839500000e-05     1     8     6     3
-4.1601323000e-03     1     8     6     4
-1.9741770000e-03     1     8     6     5
-9.5180000000e-07     1     8     6     6
 6.9190000000e-07     1     8     6     7
-7.6320000000e-07     1     8     6     9
 1.8964000000e-06     1     8     7     1
-1.6939000000e-06     1     8     7     2
 7.3460000000e-07     1     8     7     3
-1.2084900000e-05     1     8     7     4
-3.0746000000e-06     1     8     7     5
 8.0070000000e-07     1     8     7     6
-2.2024000000e-06     1     8     7     7
-1.0500000000e-08     1     8     7     9
-1.8140964570e-01     1     8     8     1
 8.7076276300e-02     1     8     8     2
-4.5937592700e-02     1     8     8     3
 1.0724707000e-03     1     8     8     4
-5.9105060000e-04     1     8     8     5
-8.3994925000e-03     1     8     8     6
 2.5701000000e-06     1     8     8     7
 1.8499144000e-03     1     8     8     9
 3.2183000000e-06     1     8     9     1
 5.0822000000e-06     1     8     9     2
-3.2380700000e-05     1     8     9     3
-2.5512697000e-03     1     8     9     4
-1.2092594000e-03     1     8     9     5
-1.6612000000e-06     1     8     9     6
-2.9840000000e-07     1     8     9     7
-1.6828000000e-06     1     8     9     9
 1.7146249500e-02     1     9     2     1
 1.0017865100e-02     1     9     2     2
 3.4181498700e-02     1     9     2     3
-8.5869740000e-04     1     9     2     4
 4.8200760000e-04     1     9     2     5
-9.9103982000e-03     1     9     2     6
-1.9861000000e-06     1     9     2     7
-1.9434000000e-06     1     9     2     8
-6.1131783100e-02     1     9     3     1
 5.1969421300e-02     1     9     3     2
 1.0866735000e-03     1     9     3     3
-2.1584780000e-04     1     9     3     4
 1.1336290000e-04     1     9     3     5
-2.2777934200e-02     1     9     3     6
-2.7062800000e-05     1     9     3     7
-2.1712400000e-05     1     9     3     8
 1.5323797000e-03     1     9     4     1
-1.3057931000e-03     1     9     4     2
-2.1452880000e-04     1     9     4     3
-7.8010098000e-03     1     9     4     4
-2.4841000000e-06     1     9     4     5
 5.7343410000e-04     1     9     4     6
-5.5869400000e-04     1     9     4     7
-1.1848369000e-03     1     9     4     8
-8.6551700000e-04     1     9     5     1
 7.3338080000e-04     1     9     5     2
 1.1215220000e-04     1     9     5     3
-2.5667000000e-06     1     9     5     4
-7.8052055000e-03     1     9     5     5
-3.2216580000e-04     1     9     5     6
 1.1789059000e-03     1     9     5     7
-5.6130170000e-04     1     9     5     8
 6.5364993000e-03     1     9     6     1
-1.1317560000e-02     1     9     6     2
-1.3812549400e-02     1     9     6     3
 3.4254700000e-04     1     9     6     4
-1.9032150000e-04     1     9     6     5
 4.7212610000e-04     1     9     6     6
 2.5071000000e-06     1     9     6     7
 7.6320000000e-07     1     9     6     8
 2.1082000000e-06     1     9     7     1
 6.3388000000e-06     1     9     7     2
-7.1473300000e-05     1     9     7     3
-1.7657313000e-03     1     9     7     4
 3.7284281000e-03     1     9     7     5
-3.9950000000e-07     1     9     7     6
-1.8442751000e-03     1     9     7     7
 1.0500000000e-08     1     9     7     8
 3.2183000000e-06     1     9     8     1
 3.1388000000e-06     1     9     8     2
-5.4093100000e-05     1     9     8     3
-3.7361066000e-03     1     9     8     4
-1.7705611000e-03     1     9     8     5
-8.9800000000e-07     1     9     8     6
-2.8790000000e-07     1     9     8     7
-1.8499144000e-03     1     9     8     8
-2.0445456520e-01     1     9     9     1
 1.0066129610e-01     1     9     9     2
-4.7699733200e-02     1     9     9     3
 1.1573530000e-03     1     9     9     4
-6.3014410000e-04     1     9     9     5
-1.1406377000e-02     1     9     9     6
 1.4616000000e-06     1     9     9     7
 1.6828000000e-06     1     9     9     8
-1.0057292260e-01     2     1     1     2
-9.7778065000e-03     2     1     1     3
 2.2866410000e-04     2     1     1     4
-1.2434660000e-04     2     1     1     5
 8.4262893600e-02     2     1     1     6
 3.3276300000e-05     2     1     1     7
 8.6294000000e-06     2     1     1     8
 1.7146249500e-02     2     1     1     9
-4.0740728000e-02     2     1     3     2
-8.2965583400e-02     2     1     3     3
 6.2304800000e-05     2     1     3     4
-3.3852000000e-05     2     1     3     5
-3.1012033000e-03     2     1     3     6
-4.4744980000e-04     2     1     3     7
-3.1784730000e-04     2     1     3     8
-1.7787922600e-02     2     1     3     9
 9.6708080000e-04     2     1     4     2
 6.4227600000e-05     2     1     4     3
-8.0439460600e-02     2     1     4     4
 7.4130000000e-07     2     1     4     5
 7.5353300000e-05     2     1     4     6
-8.2932497000e-03     2     1     4     7
-1.7511052200e-02     2     1     4     8
 4.4709570000e-04     2     1     4     9
-5.2547920000e-04     2     1     5     2
-3.4886400000e-05     2     1     5     3
 9.7850000000e-07     2     1     5     4
-8.0438080100e-02     2     1     5     5
-4.2322300000e-05     2     1     5     6
 1.7515641800e-02     2     1     5     7
-8.2995581000e-03     2     1     5     8
-2.5137320000e-04     2     1     5     9
 5.5764731500e-02     2     1     6     2
-1.3236969900e-02     2     1     6     3
 3.1655910000e-04     2     1     6     4
-1.7568940000e-04     2     1     6     5
-9.0289502000e-02     2     1     6     6
-2.8102000000e-06     2     1     6     7
-7.8360000000e-07     2     1     6     8
 1.4071618000e-03     2     1     6     9
-1.0401000000e-05     2     1     7     2
-1.2501449000e-03     2     1     7     3
-2.2991871700e-02     2     1     7     4
 4.8547806700e-02     2     1     7     5
 1.1111200000e-05     2     1     7     6
-8.7122052600e-02     2     1     7     7
 6.0770000000e-07     2     1     7     8
-8.3249000000e-06     2     1     7     9
-8.0684000000e-06     2     1     8     2
-8.8679410000e-04     2     1     8     3
-4.8532169800e-02     2     1     8     4
-2.3008675300e-02     2     1     8     5
 4.7118000000e-06     2     1     8     6
 1.6939000000e-06     2     1     8     7
-8.7076276300e-02     2     1     8     8
-5.0822000000e-06     2     1     8     9
-1.0017865100e-02     2     1     9     2
-5.1969421300e-02     2     1     9     3
 1.3057931000e-03     2     1     9     4
-7.3338080000e-04     2     1     9     5
 1.1317560000e-02     2     1     9     6
-6.3388000000e-06     2     1     9     7
-3.1388000000e-06     2     1     9     8
-1.0066129610e-01     2     1     9     9
 1.0057292260e-01     2     2     1     1
 4.0740728000e-02     2     2     1     3
-9.6708080000e-04     2     2     1     4
 5.2547920000e-04     2     2     1     5
-5.5764731500e-02     2     2     1     6
 1.0401000000e-05     2     2     1     7
 8.0684000000e-06     2     2     1     8
 1.0017865100e-02     2     2     1     9
 4.0740728000e-02     2     2     3     1
 1.4992532330e-01     2     2     3     3
-1.2907170000e-04     2     2     3     4
 7.0141000000e-05     2     2     3     5
-3.5094135000e-03     2     2     3     6
 1.6270070000e-03     2     2     3     7
 1.1504367000e-03     2     2     3     8
 6.3900018400e-02     2     2     3     9
-9.6708080000e-04     2     2     4     1
-1.2907170000e-04     2     2     4     3
 1.4431903560e-01     2     2     4     4
-1.7000000000e-06     2     2     4     5
 8.7864100000e-05     2     2     4     6
 2.9819315900e-02     2     2     4     7
 6.2914704800e-02     2     2     4     8
-1.6045131000e-03     2     2     4     9
 5.2547920000e-04     2     2     5     1
 7.0141000000e-05     2     2     5     3
-1.7000000000e-06     2     2     5     4
 1.4431620370e-01     2     2     5     5
-4.2714200000e-05     2     2     5     6
-6.2961538300e-02     2     2     5     7
 2.9831735500e-02     2     2     5     8
 9.0772420000e-04     2     2     5     9
-5.5764731500e-02     2     2     6     1
-3.5094135000e-03     2     2     6     3
 8.7864100000e-05     2     2     6     4
-4.2714200000e-05     2     2     6     5
 1.1129157100e-01     2     2     6     6
-6.5862000000e-06     2     2     6     7
-1.6225000000e-06     2     2     6     8
-3.5821872000e-03     2     2     6     9
 1.0401000000e-05     2     2     7     1
 1.6270070000e-03     2     2     7     3
 2.9819315900e-02     2     2     7     4
-6.2961538300e-02     2     2     7     5
-6.5862000000e-06     2     2     7     6
 1.3680563620e-01     2     2     7     7
-1.2585000000e-06     2     2     7     8
 2.8510000000e-07     2     2     7     9
 8.0684000000e-06     2     2     8     1
 1.1504367000e-03     2     2     8     3
 6.2914704800e-02     2     2     8     4
 2.9831735500e-02     2     2     8     5
-1.6225000000e-06     2     2     8     6
-1.2585000000e-06     2     2     8     7
 1.3675781700e-01     2     2     8     8
-1.5602000000e-06     2     2     8     9
 1.0017865100e-02     2     2     9     1
 6.3900018400e-02     2     2     9     3
-1.6045131000e-03     2     2     9     4
 9.0772420000e-04     2     2     9     5
-3.5821872000e-03     2     2     9     6
 2.8510000000e-07     2     2     9     7
-1.5602000000e-06     2     2     9     8
 1.5715915110e-01     2     2     9     9
 9.7778065000e-03     2     3     1     1
-4.0740728000e-02     2     3     1     2
-1.9228000000e-06     2     3     1     4
 1.0344000000e-06     2     3     1     5
 1.0135766600e-02     2     3     1     6
 8.0269510000e-04     2     3     1     7
 5.6894680000e-04     2     3     1     8
 3.4181498700e-02     2     3     1     9