&FCI NORB=  9,NELEC=  2,MS2=0,
 ORBSYM=1,1,1,1,1,1,1,1,1
 ISYM=1,
&END
 1.3185604800e-01     1     1     2     2
-2.7873000000e-06     1     1     2     3
-9.6428000000e-06     1     1     2     4
 6.5747439000e-03     1     1     2     5
 9.8662673500e-02     1     1     2     6
 1.9513310000e-04     1     1     2     7
 5.0406700000e-05     1     1     2     8
-2.3802882500e-02     1     1     2     9
-2.7873000000e-06     1     1     3     2
 1.6382743960e-01     1     1     3     3
 1.3300000000e-08     1     1     3     4
-8.8930000000e-06     1     1     3     5
-1.5625000000e-04     1     1     3     6
 7.1979565700e-02     1     1     3     7
 2.9768849400e-02     1     1     3     8
-8.4019000000e-06     1     1     3     9
-9.6428000000e-06     1     1     4     2
 1.3300000000e-08     1     1     4     3
 1.6383063790e-01     1     1     4     4
-3.0036900000e-05     1     1     4     5
-4.2488400000e-05     1     1     4     6
 2.9744841500e-02     1     1     4     7
-7.1992004700e-02     1     1     4     8
-1.1988860000e-04     1     1     4     9
 6.5747439000e-03     1     1     5     2
-8.8930000000e-06     1     1     5     3
-3.0036900000e-05     1     1     5     4
 1.9049277690e-01     1     1     5     5
 1.5305573700e-02     1     1     5     6
 7.0626200000e-05     1     1     5     7
-8.3886100000e-05     1     1     5     8
 8.2152562600e-02     1     1     5     9
 9.8662673500e-02     1     1     6     2
-1.5625000000e-04     1     1     6     3
-4.2488400000e-05     1     1     6     4
 1.5305573700e-02     1     1     6     5
 2.3586276820e-01     1     1     6     6
 1.0528200000e-05     1     1     6     7
 4.9991000000e-06     1     1     6     8
-3.8733039000e-03     1     1     6     9
 1.9513310000e-04     1     1     7     2
 7.1979565700e-02     1     1     7     3
 2.9744841500e-02     1     1     7     4
 7.0626200000e-05     1     1     7     5
 1.0528200000e-05     1     1     7     6
 2.3815110990e-01     1     1     7     7
 1.3487000000e-06     1     1     7     8
-4.8403000000e-06     1     1     7     9
 5.0406700000e-05     1     1     8     2
 2.9768849400e-02     1     1     8     3
-7.1992004700e-02     1     1     8     4
-8.3886100000e-05     1     1     8     5
 4.9991000000e-06     1     1     8     6
 1.3487000000e-06     1     1     8     7
 2.3816646920e-01     1     1     8     8
 5.3417000000e-06     1     1     8     9
-2.3802882500e-02     1     1     9     2
-8.4019000000e-06     1     1     9     3
-1.1988860000e-04     1     1     9     4
 8.2152562600e-02     1     1     9     5
-3.8733039000e-03     1     1     9     6
-4.8403000000e-06     1     1     9     7
 5.3417000000e-06     1     1     9     8
 2.4665337300e-01     1     1     9     9
-1.3185604800e-01     1     2     2     1
-6.7199000000e-06     1     2     2     3
-2.2409400000e-05     1     2     2     4
 1.3279734300e-02     1     2     2     5
 6.0408335200e-02     1     2     2     6
 1.1808550000e-04     1     2     2     7
 3.2878700000e-05     1     2     2     8
-1.1988868800e-02     1     2     2     9
 2.7873000000e-06     1     2     3     1
 9.9685426300e-02     1     2     3     3
 1.5630000000e-07     1     2     3     4
-7.6720000000e-07     1     2     3     5
-1.0680420000e-04     1     2     3     6
 5.0620840700e-02     1     2     3     7
 2.0933806000e-02     1     2     3     8
-2.9777000000e-06     1     2     3     9
 9.6428000000e-06     1     2     4     1
-1.5420000000e-07     1     2     4     3
 9.9686603900e-02     1     2     4     4
-2.4323000000e-06     1     2     4     5
-2.1049600000e-05     1     2     4     6
 2.0921649400e-02     1     2     4     7
-5.0627428800e-02     1     2     4     8
-7.5069800000e-05     1     2     4     9
-6.5747439000e-03     1     2     5     1
-1.1519000000e-06     1     2     5     3
-3.9959000000e-06     1     2     5     4
 1.0524465500e-01     1     2     5     5
 5.4691337000e-03     1     2     5     6
 4.2268300000e-05     1     2     5     7
-6.1438400000e-05     1     2     5     8
 5.3481851300e-02     1     2     5     9
-9.8662673500e-02     1     2     6     1
-2.6511300000e-05     1     2     6     3
-5.9998000000e-06     1     2     6     4
 1.4048408000e-03     1     2     6     5
 1.1374273930e-01     1     2     6     6
 9.5167000000e-06     1     2     6     7
 3.8185000000e-06     1     2     6     8
-1.5943688000e-03     1     2     6     9
-1.9513310000e-04     1     2     7     1
 1.2299154500e-02     1     2     7     3
 5.0809153000e-03     1     2     7     4
 8.4935000000e-06     1     2     7     5
 1.0576900000e-05     1     2     7     6
 1.1367189160e-01     1     2     7     7
 2.4164000000e-06     1     2     7     8
-2.4585000000e-06     1     2     7     9
-5.0406700000e-05     1     2     8     1
 5.0836448000e-03     1     2     8     3
-1.2299945000e-02     1     2     8     4
-1.3185500000e-05     1     2     8     5
 2.7362000000e-06     1     2     8     6
 2.7480000000e-07     1     2     8     7
 1.1368234470e-01     1     2     8     8
 3.0212000000e-06     1     2     8     9
 2.3802882500e-02     1     2     9     1
-2.0764000000e-06     1     2     9     3
-2.2107400000e-05     1     2     9     4
 1.4937413200e-02     1     2     9     5
-2.2070439000e-03     1     2     9     6
-3.8943000000e-06     1     2     9     7
 2.2566000000e-06     1     2     9     8
 1.2168373910e-01     1     2     9     9
 2.7873000000e-06     1     3     2     1
 6.7199000000e-06     1     3     2     2
 3.1050000000e-07     1     3     2     4
 3.8470000000e-07     1     3     2     5
-8.0292900000e-05     1     3     2     6
 3.8321686200e-02     1     3     2     7
 1.5850161200e-02     1     3     2     8
-9.0130000000e-07     1     3     2     9
-1.6382743960e-01     1     3     3     1
-9.9685426300e-02     1     3     3     2
-2.0055600000e-05     1     3     3     4
 1.1916156000e-02     1     3     3     5
-1.8287642100e-02     1     3     3     6
-5.6531700000e-05     1     3     3     7
-4.7674000000e-06     1     3     3     8
 1.0916216400e-02     1     3     3     9
-1.3300000000e-08     1     3     4     1
 1.5420000000e-07     1     3     4     2
 6.0902000000e-06     1     3     4     4
-2.2200000000e-08     1     3     4     5
-5.7920000000e-07     1     3     4     6
-2.7024900000e-05     1     3     4     7
-1.7580000000e-07     1     3     4     8
 7.1026830000e-04     1     3     4     9
 8.8930000000e-06     1     3     5     1
 1.1519000000e-06     1     3     5     2
-3.9600000000e-08     1     3     5     4
 7.5243000000e-06     1     3     5     5
-2.0782200000e-05     1     3     5     6
 1.3072199900e-02     1     3     5     7
 5.3958483000e-03     1     3     5     8
 2.4773000000e-05     1     3     5     9
 1.5625000000e-04     1     3     6     1
 2.6511300000e-05     1     3     6     2
-1.9210000000e-07     1     3     6     4
 8.6520000000e-07     1     3     6     5
 3.3700300000e-05     1     3     6     6
 6.5882775000e-03     1     3     6     7
 2.7273215000e-03     1     3     6     8
-5.3110000000e-07     1     3     6     9
-7.1979565700e-02     1     3     7     1
-1.2299154500e-02     1     3     7     2
-1.5960000000e-07     1     3     7     4
-5.3286470000e-04     1     3     7     5
-1.7180808300e-02     1     3     7     6
-1.1492900000e-05     1     3     7     7
-5.3708000000e-06     1     3     7     8
-1.5363055000e-03     1     3     7     9
-2.9768849400e-02     1     3     8     1
-5.0836448000e-03     1     3     8     2
-1.6790000000e-07     1     3     8     4
-2.1973040000e-04     1     3     8     5
-7.1027048000e-03     1     3     8     6
-1.2477600000e-05     1     3     8     7
 4.1507000000e-06     1     3     8     8
-8.0677610000e-04     1     3     8     9
 8.4019000000e-06     1     3     9     1
 2.0764000000e-06     1     3     9     2
 3.8000000000e-08     1     3     9     4
-3.1400000000e-07     1     3     9     5
 7.4972000000e-06     1     3     9     6
-4.3557203000e-03     1     3     9     7
-1.6808282000e-03     1     3     9     8
 2.3833000000e-06     1     3     9     9
 9.6428000000e-06     1     4     2     1
 2.2409400000e-05     1     4     2     2
-3.1050000000e-07     1     4     2     3
 1.5636000000e-06     1     4     2     5
-1.5049800000e-05     1     4     2     6
 1.5840734100e-02     1     4     2     7
-3.8327483800e-02     1     4     2     8
-5.2962400000e-05     1     4     2     9
-1.3300000000e-08     1     4     3     1
-1.5630000000e-07     1     4     3     2
 2.0055600000e-05     1     4     3     3
 1.7400000000e-08     1     4     3     5
-3.8710000000e-07     1     4     3     6
-2.6865300000e-05     1     4     3     7
-7.9000000000e-09     1     4     3     8
 7.1023030000e-04     1     4     3     9
-1.6383063790e-01     1     4     4     1
-9.9686603900e-02     1     4     4     2
-6.0902000000e-06     1     4     4     3
 1.1915980800e-02     1     4     4     5
-1.8290423300e-02     1     4     4     6
-5.8285100000e-05     1     4     4     7
 2.9415100000e-05     1     4     4     8
 1.1322602500e-02     1     4     4     9
 3.0036900000e-05     1     4     5     1
 3.9959000000e-06     1     4     5     2
 3.9600000000e-08     1     4     5     3
 2.4803400000e-05     1     4     5     5
 2.4386300000e-05     1     4     5     6
 5.4226413000e-03     1     4     5     7
-1.3058142800e-02     1     4     5     8
 7.2090800000e-05     1     4     5     9
 4.2488400000e-05     1     4     6     1
 5.9998000000e-06     1     4     6     2
 1.9210000000e-07     1     4     6     3
-1.0678000000e-06     1     4     6     5
 2.3894100000e-05     1     4     6     6
 2.7255099000e-03     1     4     6     7
-6.5920904000e-03     1     4     6     8
-3.0909500000e-05     1     4     6     9
-2.9744841500e-02     1     4     7     1
-5.0809153000e-03     1     4     7     2
 1.5960000000e-07     1     4     7     3
-2.1906130000e-04     1     4     7     5
-7.1009209000e-03     1     4     7     6
 1.7552100000e-05     1     4     7     7
-1.6095400000e-05     1     4     7     8
-4.7562470000e-04     1     4     7     9
 7.1992004700e-02     1     4     8     1
 1.2299945000e-02     1     4     8     2
 1.6790000000e-07     1     4     8     3
 5.3295750000e-04     1     4     8     5
 1.7180016000e-02     1     4     8     6
 3.4364900000e-05     1     4     8     7
 3.0422600000e-05     1     4     8     8
 1.5602154000e-03     1     4     8     9
 1.1988860000e-04     1     4     9     1
 2.2107400000e-05     1     4     9     2
-3.8000000000e-08     1     4     9     3
-5.2290000000e-07     1     4     9     5
 1.2398700000e-05     1     4     9     6
-1.9011059000e-03     1     4     9     7
 4.3166944000e-03     1     4     9     8
 1.2538700000e-05     1     4     9     9
-6.5747439000e-03     1     5     2     1
-1.3279734300e-02     1     5     2     2
-3.8470000000e-07     1     5     2     3
-1.5636000000e-06     1     5     2     4
 4.0642929000e-03     1     5     2     6
 3.3774800000e-05     1     5     2     7
-4.8252900000e-05     1     5     2     8
 3.8544438100e-02     1     5     2     9
 8.8930000000e-06     1     5     3     1
 7.6720000000e-07     1     5     3     2
-1.1916156000e-02     1     5     3     3
-1.7400000000e-08     1     5     3     4
-2.1647400000e-05     1     5     3     6
 1.3605064600e-02     1     5     3     7
 5.6155787000e-03     1     5     3     8
 2.5087000000e-05     1     5     3     9
 3.0036900000e-05     1     5     4     1
 2.4323000000e-06     1     5     4     2
 2.2200000000e-08     1     5     4     3
-1.1915980800e-02     1     5     4     4
 2.5454100000e-05     1     5     4     6
 5.6417026000e-03     1     5     4     7
-1.3591100300e-02     1     5     4     8
 7.2613700000e-05     1     5     4     9
-1.9049277690e-01     1     5     5     1
-1.0524465500e-01     1     5     5     2
-7.5243000000e-06     1     5     5     3
-2.4803400000e-05     1     5     5     4
-3.5666304800e-02     1     5     5     6
-2.3699600000e-05     1     5     5     7
-6.1211500000e-05     1     5     5     8
-1.7035100900e-02     1     5     5     9
-1.5305573700e-02     1     5     6     1
-1.4048408000e-03     1     5     6     2
-8.6520000000e-07     1     5     6     3
 1.0678000000e-06     1     5     6     4
-1.1212160600e-02     1     5     6     6
 5.2889000000e-06     1     5     6     7
-3.5527000000e-06     1     5     6     8
 1.9844600000e-02     1     5     6     9
-7.0626200000e-05     1     5     7     1
-8.4935000000e-06     1     5     7     2
 5.3286470000e-04     1     5     7     3
 2.1906130000e-04     1     5     7     4
-6.3051000000e-06     1     5     7     6
-1.4176630500e-02     1     5     7     7
 2.8168000000e-06     1     5     7     8
 3.5738100000e-05     1     5     7     9
 8.3886100000e-05     1     5     8     1
 1.3185500000e-05     1     5     8     2
 2.1973040000e-04     1     5     8     3
-5.3295750000e-04     1     5     8     4
 2.2509700000e-05     1     5     8     6
-2.7091000000e-06     1     5     8     7
-1.4175188600e-02     1     5     8     8
 7.6267000000e-06     1     5     8     9
-8.2152562600e-02     1     5     9     1
-1.4937413200e-02     1     5     9     2
 3.1400000000e-07     1     5     9     3
 5.2290000000e-07     1     5     9     4
-8.7438859000e-03     1     5     9     6
-2.7830800000e-05     1     5     9     7
 5.4478000000e-06     1     5     9     8
-1.1271316100e-02     1     5     9     9
-9.8662673500e-02     1     6     2     1
-6.0408335200e-02     1     6     2     2
 8.0292900000e-05     1     6     2     3
 1.5049800000e-05     1     6     2     4
-4.0642929000e-03     1     6     2     5
-1.0602000000e-06     1     6     2     7
 1.0823000000e-06     1     6     2     8
 6.1267510000e-04     1     6     2     9
 1.5625000000e-04     1     6     3     1
 1.0680420000e-04     1     6     3     2
 1.8287642100e-02     1     6     3     3
 3.8710000000e-07     1     6     3     4
 2.1647400000e-05     1     6     3     5
 2.3769085800e-02     1     6     3     7
 9.8300263000e-03     1     6     3     8
-8.0283000000e-06     1     6     3     9
 4.2488400000e-05     1     6     4     1
 2.1049600000e-05     1     6     4     2
 5.7920000000e-07     1     6     4     3
 1.8290423300e-02     1     6     4     4
-2.5454100000e-05     1     6     4     5
 9.8264308000e-03     1     6     4     7
-2.3772106400e-02     1     6     4     8
-4.3308200000e-05     1     6     4     9
-1.5305573700e-02     1     6     5     1
-5.4691337000e-03     1     6     5     2
 2.0782200000e-05     1     6     5     3
-2.4386300000e-05     1     6     5     4
 3.5666304800e-02     1     6     5     5
 1.1594000000e-05     1     6     5     7
-2.6062400000e-05     1     6     5     8
 2.8588485900e-02     1     6     5     9
-2.3586276820e-01     1     6     6     1
-1.1374273930e-01     1     6     6     2
-3.3700300000e-05     1     6     6     3
-2.3894100000e-05     1     6     6     4
 1.1212160600e-02     1     6     6     5
-2.1409100000e-05     1     6     6     7
-5.4073000000e-06     1     6     6     8
-3.4618767000e-03     1     6     6     9
-1.0528200000e-05     1     6     7     1
-1.0576900000e-05     1     6     7     2
 1.7180808300e-02     1     6     7     3
 7.1009209000e-03     1     6     7     4
 6.3051000000e-06     1     6     7     5
 1.2253119600e-02     1     6     7     7
 1.1682000000e-06     1     6     7     8
-3.6950000000e-06     1     6     7     9
-4.9991000000e-06     1     6     8     1
-2.7362000000e-06     1     6     8     2
 7.1027048000e-03     1     6     8     3
-1.7180016000e-02     1     6     8     4
-2.2509700000e-05     1     6     8     5
 8.1760000000e-07     1     6     8     7
 1.2256516800e-02     1     6     8     8
 2.0402000000e-06     1     6     8     9
 3.8733039000e-03     1     6     9     1
 2.2070439000e-03     1     6     9     2
-7.4972000000e-06     1     6     9     3
-1.2398700000e-05     1     6     9     4
 8.7438859000e-03     1     6     9     5
 1.1970000000e-06     1     6     9     7
 9.9220000000e-07     1     6     9     8
 1.1223852700e-02     1     6     9     9
-1.9513310000e-04     1     7     2     1
-1.1808550000e-04     1     7     2     2
-3.8321686200e-02     1     7     2     3
-1.5840734100e-02     1     7     2     4
-3.3774800000e-05     1     7     2     5
 1.0602000000e-06     1     7     2     6
 2.1416000000e-06     1     7     2     8
 1.4358000000e-06     1     7     2     9
-7.1979565700e-02     1     7     3     1
-5.0620840700e-02     1     7     3     2
 5.6531700000e-05     1     7     3     3
 2.6865300000e-05     1     7     3     4
-1.3605064600e-02     1     7     3     5
-2.3769085800e-02     1     7     3     6
 7.1068000000e-06     1     7     3     8
 2.8194148000e-03     1     7     3     9
-2.9744841500e-02     1     7     4     1
-2.0921649400e-02     1     7     4     2
 2.7024900000e-05     1     7     4     3
 5.8285100000e-05     1     7     4     4
-5.6417026000e-03     1     7     4     5
-9.8264308000e-03     1     7     4     6
-5.0460300000e-05     1     7     4     8
 1.4254812000e-03     1     7     4     9
-7.0626200000e-05     1     7     5     1
-4.2268300000e-05     1     7     5     2
-1.3072199900e-02     1     7     5     3
-5.4226413000e-03     1     7     5     4
 2.3699600000e-05     1     7     5     5
-1.1594000000e-05     1     7     5     6
 5.5259000000e-06     1     7     5     8
 6.3568900000e-05     1     7     5     9
-1.0528200000e-05     1     7     6     1
-9.5167000000e-06     1     7     6     2
-6.5882775000e-03     1     7     6     3
-2.7255099000e-03     1     7     6     4
-5.2889000000e-06     1     7     6     5
 2.1409100000e-05     1     7     6     6
 3.5060000000e-07     1     7     6     8
-4.8920000000e-06     1     7     6     9
-2.3815110990e-01     1     7     7     1
-1.1367189160e-01     1     7     7     2
 1.1492900000e-05     1     7     7     3
-1.7552100000e-05     1     7     7     4
 1.4176630500e-02     1     7     7     5
-1.2253119600e-02     1     7     7     6
-5.8294000000e-06     1     7     7     8
-1.1254958000e-03     1     7     7     9
-1.3487000000e-06     1     7     8     1
-2.7480000000e-07     1     7     8     2
 1.2477600000e-05     1     7     8     3
-3.4364900000e-05     1     7     8     4
 2.7091000000e-06     1     7     8     5
-8.1760000000e-07     1     7     8     6
 2.3760400000e-05     1     7     8     8
-3.3746600000e-05     1     7     8     9
 4.8403000000e-06     1     7     9     1
 3.8943000000e-06     1     7     9     2
 4.3557203000e-03     1     7     9     3
 1.9011059000e-03     1     7     9     4
 2.7830800000e-05     1     7     9     5
-1.1970000000e-06     1     7     9     6
 2.1490000000e-07     1     7     9     8
 2.0154100000e-05     1     7     9     9
-5.0406700000e-05     1     8     2     1
-3.2878700000e-05     1     8     2     2
-1.5850161200e-02     1     8     2     3
 3.8327483800e-02     1     8     2     4
 4.8252900000e-05     1     8     2     5
-1.0823000000e-06     1     8     2     6
-2.1416000000e-06     1     8     2     7
 7.6460000000e-07     1     8     2     9
-2.9768849400e-02     1     8     3     1
-2.0933806000e-02     1     8     3     2
 4.7674000000e-06     1     8     3     3
 7.9000000000e-09     1     8     3     4
-5.6155787000e-03     1     8     3     5
-9.8300263000e-03     1     8     3     6
-7.1068000000e-06     1     8     3     7
 8.7405210000e-04     1     8     3     9
 7.1992004700e-02     1     8     4     1
 5.0627428800e-02     1     8     4     2
 1.7580000000e-07     1     8     4     3
-2.9415100000e-05     1     8     4     4
 1.3591100300e-02     1     8     4     5
 2.3772106400e-02     1     8     4     6
 5.0460300000e-05     1     8     4     7
-2.7564790000e-03     1     8     4     9
 8.3886100000e-05     1     8     5     1
 6.1438400000e-05     1     8     5     2
-5.3958483000e-03     1     8     5     3
 1.3058142800e-02     1     8     5     4
 6.1211500000e-05     1     8     5     5
 2.6062400000e-05     1     8     5     6
-5.5259000000e-06     1     8     5     7
 2.1789000000e-06     1     8     5     9
-4.9991000000e-06     1     8     6     1
-3.8185000000e-06     1     8     6     2
-2.7273215000e-03     1     8     6     3
 6.5920904000e-03     1     8     6     4
 3.5527000000e-06     1     8     6     5
 5.4073000000e-06     1     8     6     6
-3.5060000000e-07     1     8     6     7
 1.0480000000e-06     1     8     6     9
-1.3487000000e-06     1     8     7     1
-2.4164000000e-06     1     8     7     2
 5.3708000000e-06     1     8     7     3
 1.6095400000e-05     1     8     7     4
-2.8168000000e-06     1     8     7     5
-1.1682000000e-06     1     8     7     6
 5.8294000000e-06     1     8     7     7
-3.3961500000e-05     1     8     7     9
-2.3816646920e-01     1     8     8     1
-1.1368234470e-01     1     8     8     2
-4.1507000000e-06     1     8     8     3
-3.0422600000e-05     1     8     8     4
 1.4175188600e-02     1     8     8     5
-1.2256516800e-02     1     8     8     6
-2.3760400000e-05     1     8     8     7
-1.1604757000e-03     1     8     8     9
-5.3417000000e-06     1     8     9     1
-2.2566000000e-06     1     8     9     2
 1.6808282000e-03     1     8     9     3
-4.3166944000e-03     1     8     9     4
-5.4478000000e-06     1     8     9     5
-9.9220000000e-07     1     8     9     6
-2.1490000000e-07     1     8     9     7
 7.3597000000e-06     1     8     9     9
 2.3802882500e-02     1     9     2     1
 1.1988868800e-02     1     9     2     2
 9.0130000000e-07     1     9     2     3
 5.2962400000e-05     1     9     2     4
-3.8544438100e-02     1     9     2     5
-6.1267510000e-04     1     9     2     6
-1.4358000000e-06     1     9     2     7
-7.6460000000e-07     1     9     2     8
 8.4019000000e-06     1     9     3     1
 2.9777000000e-06     1     9     3     2
-1.0916216400e-02     1     9     3     3
-7.1023030000e-04     1     9     3     4
-2.5087000000e-05     1     9     3     5
 8.0283000000e-06     1     9     3     6
-2.8194148000e-03     1     9     3     7
-8.7405210000e-04     1     9     3     8
 1.1988860000e-04     1     9     4     1
 7.5069800000e-05     1     9     4     2
-7.1026830000e-04     1     9     4     3
-1.1322602500e-02     1     9     4     4
-7.2613700000e-05     1     9     4     5
 4.3308200000e-05     1     9     4     6
-1.4254812000e-03     1     9     4     7
 2.7564790000e-03     1     9     4     8
-8.2152562600e-02     1     9     5     1
-5.3481851300e-02     1     9     5     2
-2.4773000000e-05     1     9     5     3
-7.2090800000e-05     1     9     5     4
 1.7035100900e-02     1     9     5     5
-2.8588485900e-02     1     9     5     6
-6.3568900000e-05     1     9     5     7
-2.1789000000e-06     1     9     5     8
 3.8733039000e-03     1     9     6     1
 1.5943688000e-03     1     9     6     2
 5.3110000000e-07     1     9     6     3
 3.0909500000e-05     1     9     6     4
-1.9844600000e-02     1     9     6     5
 3.4618767000e-03     1     9     6     6
 4.8920000000e-06     1     9     6     7
-1.0480000000e-06     1     9     6     8
 4.8403000000e-06     1     9     7     1
 2.4585000000e-06     1     9     7     2
 1.5363055000e-03     1     9     7     3
 4.7562470000e-04     1     9     7     4
-3.5738100000e-05     1     9     7     5
 3.6950000000e-06     1     9     7     6
 1.1254958000e-03     1     9     7     7
 3.3961500000e-05     1     9     7     8
-5.3417000000e-06     1     9     8     1
-3.0212000000e-06     1     9     8     2
 8.0677610000e-04     1     9     8     3
-1.5602154000e-03     1     9     8     4
-7.6267000000e-06     1     9     8     5
-2.0402000000e-06     1     9     8     6
 3.3746600000e-05     1     9     8     7
 1.1604757000e-03     1     9     8     8
-2.4665337300e-01     1     9     9     1
-1.2168373910e-01     1     9     9     2
-2.3833000000e-06     1     9     9     3
-1.2538700000e-05     1     9     9     4
 1.1271316100e-02     1     9     9     5
-1.1223852700e-02     1     9     9     6
-2.0154100000e-05     1     9     9     7
-7.3597000000e-06     1     9     9     8
-1.3185604800e-01     2     1     1     2
 2.7873000000e-06     2     1     1     3
 9.6428000000e-06     2     1     1     4
-6.5747439000e-03     2     1     1     5
-9.8662673500e-02     2     1     1     6
-1.9513310000e-04     2     1     1     7
-5.0406700000e-05     2     1     1     8
 2.3802882500e-02     2     1     1     9
-6.7199000000e-06     2     1     3     2
 9.9685426300e-02     2     1     3     3
-1.5420000000e-07     2     1     3     4
-1.1519000000e-06     2     1     3     5
-2.6511300000e-05     2     1     3     6
 1.2299154500e-02     2     1     3     7
 5.0836448000e-03     2     1     3     8
-2.0764000000e-06     2     1     3     9
-2.2409400000e-05     2     1     4     2
 1.5630000000e-07     2     1     4     3
 9.9686603900e-02     2     1     4     4
-3.9959000000e-06     2     1     4     5
-5.9998000000e-06     2     1     4     6
 5.0809153000e-03     2     1     4     7
-1.2299945000e-02     2     1     4     8
-2.2107400000e-05     2     1     4     9
 1.3279734300e-02     2     1     5     2
-7.6720000000e-07     2     1     5     3
-2.4323000000e-06     2     1     5     4
 1.0524465500e-01     2     1     5     5
 1.4048408000e-03     2     1     5     6
 8.4935000000e-06     2     1     5     7
-1.3185500000e-05     2     1     5     8
 1.4937413200e-02     2     1     5     9
 6.0408335200e-02     2     1     6     2
-1.0680420000e-04     2     1     6     3
-2.1049600000e-05     2     1     6     4
 5.4691337000e-03     2     1     6     5
 1.1374273930e-01     2     1     6     6
 1.0576900000e-05     2     1     6     7
 2.7362000000e-06     2     1     6     8
-2.2070439000e-03     2     1     6     9
 1.1808550000e-04     2     1     7     2
 5.0620840700e-02     2     1     7     3
 2.0921649400e-02     2     1     7     4
 4.2268300000e-05     2     1     7     5
 9.5167000000e-06     2     1     7     6
 1.1367189160e-01     2     1     7     7
 2.7480000000e-07     2     1     7     8
-3.8943000000e-06     2     1     7     9
 3.2878700000e-05     2     1     8     2
 2.0933806000e-02     2     1     8     3
-5.0627428800e-02     2     1     8     4
-6.1438400000e-05     2     1     8     5
 3.8185000000e-06     2     1     8     6
 2.4164000000e-06     2     1     8     7
 1.1368234470e-01     2     1     8     8
 2.2566000000e-06     2     1     8     9
-1.1988868800e-02     2     1     9     2
-2.9777000000e-06     2     1     9     3
-7.5069800000e-05     2     1     9     4
 5.3481851300e-02     2     1     9     5
-1.5943688000e-03     2     1     9     6
-2.4585000000e-06     2     1     9     7
 3.0212000000e-06     2     1     9     8
 1.2168373910e-01     2     1     9     9
 1.3185604800e-01     2     2     1     1
 6.7199000000e-06     2     2     1     3
 2.2409400000e-05     2     2     1     4
-1.3279734300e-02     2     2     1     5
-6.0408335200e-02     2     2     1     6
-1.1808550000e-04     2     2     1     7
-3.2878700000e-05     2     2     1     8
 1.1988868800e-02     2     2     1     9
 6.7199000000e-06     2     2     3     1
 1.7150961400e-01     2     2     3     3
 1.0200000000e-08     2     2     3     4
-6.9640000000e-06     2     2     3     5
-1.7409320000e-04     2     2     3     6
 8.1010707700e-02     2     2     3     7
 3.3503749500e-02     2     2     3     8
-3.9240000000e-06     2     2     3     9
 2.2409400000e-05     2     2     4     1
 1.0200000000e-08     2     2     4     3
 1.7151319330e-01     2     2     4     4
-2.3427800000e-05     2     2     4     5
-4.0789000000e-05     2     2     4     6
 3.3478646400e-02     2     2     4     7
-8.1022474100e-02     2     2     4     8
-1.1532190000e-04     2     2     4     9
-1.3279734300e-02     2     2     5     1
-6.9640000000e-06     2     2     5     3
-2.3427800000e-05     2     2     5     4
 1.9504006930e-01     2     2     5     5
 1.1432662700e-02     2     2     5     6
 7.1908000000e-05     2     2     5     7
-9.4971900000e-05     2     2     5     8
 7.8693490100e-02     2     2     5     9
-6.0408335200e-02     2     2     6     1
-1.7409320000e-04     2     2     6     3
-4.0789000000e-05     2     2     6     4
 1.1432662700e-02     2     2     6     5
 1.4091296120e-01     2     2     6     6
-5.1319100000e-05     2     2     6     7
-1.2427400000e-05     2     2     6     8
 3.6071230000e-04     2     2     6     9
-1.1808550000e-04     2     2     7     1
 8.1010707700e-02     2     2     7     3
 3.3478646400e-02     2     2     7     4
 7.1908000000e-05     2     2     7     5
-5.1319100000e-05     2     2     7     6
 1.7403348940e-01     2     2     7     7
-3.1730000000e-06     2     2     7     8
 3.9074000000e-06     2     2     7     9
-3.2878700000e-05     2     2     8     1
 3.3503749500e-02     2     2     8     3
-8.1022474100e-02     2     2     8     4
-9.4971900000e-05     2     2     8     5
-1.2427400000e-05     2     2     8     6
-3.1730000000e-06     2     2     8     7
 1.7403477610e-01     2     2     8     8
 5.2054000000e-06     2     2     8     9
 1.1988868800e-02     2     2     9     1
-3.9240000000e-06     2     2     9     3
-1.1532190000e-04     2     2     9     4
 7.8693490100e-02     2     2     9     5
 3.6071230000e-04     2     2     9     6
 3.9074000000e-06     2     2     9     7
 5.2054000000e-06     2     2     9     8
 1.7837957020e-01     2     2     9     9
-2.7873000000e-06     2     3     1     1
-6.7199000000e-06     2     3     1     2
-3.1050000000e-07     2     3     1     4
-3.8470000000e-07     2     3     1     5
 8.0292900000e-05     2     3     1     6
-3.8321686200e-02     2     3     1     7
-1.5850161200e-02     2     3     1     8
 9.0130000000e-07     2     3     1     9