&FCI NORB=  9,NELEC=  2,MS2=0,
 ORBSYM=1,1,1,1,1,1,1,1,1
 ISYM=1,
&END
 1.2745355840e-01     1     1     2     2
-2.4964400000e-05     1     1     2     3
-3.4034900000e-05     1     1     2     4
 9.4964576000e-03     1     1     2     5
-9.6422178300e-02     1     1     2     6
-1.0564060000e-04     1     1     2     7
 8.0760300000e-05     1     1     2     8
-1.9395173800e-02     1     1     2     9
-2.4964400000e-05     1     1     3     2
 1.5741940200e-01     1     1     3     3
 1.7460000000e-07     1     1     3     4
-4.3479400000e-05     1     1     3     5
 8.2432400000e-05     1     1     3     6
-7.1547732900e-02     1     1     3     7
-1.8916846800e-02     1     1     3     8
-1.5427720000e-04     1     1     3     9
-3.4034900000e-05     1     1     4     2
 1.7460000000e-07     1     1     4     3
 1.5742046590e-01     1     1     4     4
-5.9247800000e-05     1     1     4     5
 1.0883050000e-04     1     1     4     6
-1.8912066100e-02     1     1     4     7
 7.1563099200e-02     1     1     4     8
-3.1268330000e-04     1     1     4     9
 9.4964576000e-03     1     1     5     2
-4.3479400000e-05     1     1     5     3
-5.9247800000e-05     1     1     5     4
 1.7867673190e-01     1     1     5     5
-1.0811476700e-02     1     1     5     6
-2.1216950000e-04     1     1     5     7
 1.7348880000e-04     1     1     5     8
 8.3148656600e-02     1     1     5     9
-9.6422178300e-02     1     1     6     2
 8.2432400000e-05     1     1     6     3
 1.0883050000e-04     1     1     6     4
-1.0811476700e-02     1     1     6     5
 2.2517791260e-01     1     1     6     6
 4.7403000000e-06     1     1     6     7
-3.6261000000e-06     1     1     6     8
 5.1412812000e-03     1     1     6     9
-1.0564060000e-04     1     1     7     2
-7.1547732900e-02     1     1     7     3
-1.8912066100e-02     1     1     7     4
-2.1216950000e-04     1     1     7     5
 4.7403000000e-06     1     1     7     6
 2.2770971840e-01     1     1     7     7
 2.8700000000e-08     1     1     7     8
 7.4415000000e-06     1     1     7     9
 8.0760300000e-05     1     1     8     2
-1.8916846800e-02     1     1     8     3
 7.1563099200e-02     1     1     8     4
 1.7348880000e-04     1     1     8     5
-3.6261000000e-06     1     1     8     6
 2.8700000000e-08     1     1     8     7
 2.2771974520e-01     1     1     8     8
-1.8462700000e-05     1     1     8     9
-1.9395173800e-02     1     1     9     2
-1.5427720000e-04     1     1     9     3
-3.1268330000e-04     1     1     9     4
 8.3148656600e-02     1     1     9     5
 5.1412812000e-03     1     1     9     6
 7.4415000000e-06     1     1     9     7
-1.8462700000e-05     1     1     9     8
 2.4766055890e-01     1     1     9     9
-1.2745355840e-01     1     2     2     1
-5.9005600000e-05     1     2     2     3
-8.0263400000e-05     1     2     2     4
 2.1286309000e-02     1     2     2     5
-5.9705356900e-02     1     2     2     6
-5.7208100000e-05     1     2     2     7
 4.3566300000e-05     1     2     2     8
-4.1149636000e-03     1     2     2     9
 2.4964400000e-05     1     2     3     1
 9.6291047700e-02     1     2     3     3
 1.4090000000e-07     1     2     3     4
-5.7831000000e-06     1     2     3     5
 3.6554000000e-05     1     2     3     6
-5.2485724600e-02     1     2     3     7
-1.3875952500e-02     1     2     3     8
-1.0646940000e-04     1     2     3     9
 3.4034900000e-05     1     2     4     1
-7.7200000000e-08     1     2     4     3
 9.6291435100e-02     1     2     4     4
-7.8796000000e-06     1     2     4     5
 4.7262800000e-05     1     2     4     6
-1.3873629100e-02     1     2     4     7
 5.2492565400e-02     1     2     4     8
-1.9151840000e-04     1     2     4     9
-9.4964576000e-03     1     2     5     1
-7.4716000000e-06     1     2     5     3
-1.0171700000e-05     1     2     5     4
 1.0095184080e-01     1     2     5     5
 4.8591450000e-04     1     2     5     6
-1.5411520000e-04     1     2     5     7
 1.2586360000e-04     1     2     5     8
 5.5967357400e-02     1     2     5     9
 9.6422178300e-02     1     2     6     1
 1.0745100000e-05     1     2     6     3
 1.3944100000e-05     1     2     6     4
-5.5378000000e-05     1     2     6     5
 1.0924254130e-01     1     2     6     6
 3.3684000000e-06     1     2     6     7
-2.5404000000e-06     1     2     6     8
-1.3535830000e-04     1     2     6     9
 1.0564060000e-04     1     2     7     1
-1.3536141200e-02     1     2     7     3
-3.5760803000e-03     1     2     7     4
-3.7330400000e-05     1     2     7     5
 8.0085000000e-06     1     2     7     6
 1.0918584880e-01     1     2     7     7
 9.3580000000e-07     1     2     7     8
 2.8496000000e-06     1     2     7     9
-8.0760300000e-05     1     2     8     1
-3.5766265000e-03     1     2     8     3
 1.3537455200e-02     1     2     8     4
 3.0521700000e-05     1     2     8     5
-6.1983000000e-06     1     2     8     6
-9.2910000000e-07     1     2     8     7
 1.0919295950e-01     1     2     8     8
-9.4579000000e-06     1     2     8     9
 1.9395173800e-02     1     2     9     1
-3.0862800000e-05     1     2     9     3
-5.2634800000e-05     1     2     9     4
 1.5340572700e-02     1     2     9     5
 3.4938957000e-03     1     2     9     6
 4.7888000000e-06     1     2     9     7
-1.3652400000e-05     1     2     9     8
 1.2469278610e-01     1     2     9     9
 2.4964400000e-05     1     3     2     1
 5.9005600000e-05     1     3     2     2
 2.1810000000e-07     1     3     2     4
 1.6885000000e-06     1     3     2     5
 2.5808900000e-05     1     3     2     6
-3.8949583400e-02     1     3     2     7
-1.0299326000e-02     1     3     2     8
-7.5606600000e-05     1     3     2     9
-1.5741940200e-01     1     3     3     1
-9.6291047700e-02     1     3     3     2
-7.4723100000e-05     1     3     3     4
 1.9902877400e-02     1     3     3     5
 1.6889279700e-02     1     3     3     6
 9.5921100000e-05     1     3     3     7
-1.0445200000e-05     1     3     3     8
 6.1400927000e-03     1     3     3     9
-1.7460000000e-07     1     3     4     1
 7.7200000000e-08     1     3     4     2
 5.4965400000e-05     1     3     4     4
-4.1700000000e-08     1     3     4     5
 1.1600000000e-07     1     3     4     6
 5.8197400000e-05     1     3     4     7
-2.4008600000e-05     1     3     4     8
-4.0304270000e-04     1     3     4     9
 4.3479400000e-05     1     3     5     1
 7.4716000000e-06     1     3     5     2
-4.8100000000e-08     1     3     5     4
 6.0575400000e-05     1     3     5     5
-4.1204600000e-05     1     3     5     6
-1.2294570800e-02     1     3     5     7
-3.2478661000e-03     1     3     5     8
 2.4151300000e-05     1     3     5     9
-8.2432400000e-05     1     3     6     1
-1.0745100000e-05     1     3     6     2
 1.3410000000e-07     1     3     6     4
 9.0580000000e-07     1     3     6     5
 6.5533700000e-05     1     3     6     6
 5.9846515000e-03     1     3     6     7
 1.5841073000e-03     1     3     6     8
 4.7351800000e-05     1     3     6     9
 7.1547732900e-02     1     3     7     1
 1.3536141200e-02     1     3     7     2
-5.1780000000e-07     1     3     7     4
 6.0763790000e-04     1     3     7     5
-1.7690201600e-02     1     3     7     6
 5.4630500000e-05     1     3     7     7
 1.1807100000e-05     1     3     7     8
 4.8410346000e-03     1     3     7     9
 1.8916846800e-02     1     3     8     1
 3.5766265000e-03     1     3     8     2
-5.9130000000e-07     1     3     8     4
 1.5999440000e-04     1     3     8     5
-4.6758113000e-03     1     3     8     6
-1.2354100000e-05     1     3     8     7
 6.5080400000e-05     1     3     8     8
 1.1817712000e-03     1     3     8     9
 1.5427720000e-04     1     3     9     1
 3.0862800000e-05     1     3     9     2
 4.2600000000e-08     1     3     9     4
-2.1618000000e-06     1     3     9     5
-1.5915100000e-05     1     3     9     6
 5.2240139000e-03     1     3     9     7
 1.4370823000e-03     1     3     9     8
 5.1202800000e-05     1     3     9     9
 3.4034900000e-05     1     4     2     1
 8.0263400000e-05     1     4     2     2
-2.1810000000e-07     1     4     2     3
 2.2921000000e-06     1     4     2     5
 3.3318700000e-05     1     4     2     6
-1.0297548800e-02     1     4     2     7
 3.8955110200e-02     1     4     2     8
-1.3888360000e-04     1     4     2     9
-1.7460000000e-07     1     4     3     1
-1.4090000000e-07     1     4     3     2
 7.4723100000e-05     1     4     3     3
 6.4000000000e-09     1     4     3     5
-1.8100000000e-08     1     4     3     6
 5.8715200000e-05     1     4     3     7
-2.3417300000e-05     1     4     3     8
-4.0308530000e-04     1     4     3     9
-1.5742046590e-01     1     4     4     1
-9.6291435100e-02     1     4     4     2
-5.4965400000e-05     1     4     4     3
 1.9902840600e-02     1     4     4     5
 1.6889605900e-02     1     4     4     6
 5.6717400000e-05     1     4     4     7
-1.1024550000e-04     1     4     4     8
 6.1404018000e-03     1     4     4     9
 5.9247800000e-05     1     4     5     1
 1.0171700000e-05     1     4     5     2
 4.8100000000e-08     1     4     5     3
 8.2361700000e-05     1     4     5     5
-5.6774800000e-05     1     4     5     6
-3.2514049000e-03     1     4     5     7
 1.2279588100e-02     1     4     5     8
 1.3453470000e-04     1     4     5     9
-1.0883050000e-04     1     4     6     1
-1.3944100000e-05     1     4     6     2
-1.3410000000e-07     1     4     6     3
 1.2621000000e-06     1     4     6     5
 8.8361100000e-05     1     4     6     6
 1.5835375000e-03     1     4     6     7
-5.9869728000e-03     1     4     6     8
 7.4573600000e-05     1     4     6     9
 1.8912066100e-02     1     4     7     1
 3.5760803000e-03     1     4     7     2
 5.1780000000e-07     1     4     7     3
 1.5995600000e-04     1     4     7     5
-4.6754618000e-03     1     4     7     6
 8.6023900000e-05     1     4     7     7
-4.1639000000e-06     1     4     7     8
 1.3631578000e-03     1     4     7     9
-7.1563099200e-02     1     4     8     1
-1.3537455200e-02     1     4     8     2
 5.9130000000e-07     1     4     8     3
-6.0767180000e-04     1     4     8     5
 1.7690599500e-02     1     4     8     6
 1.4383000000e-05     1     4     8     7
 7.7152000000e-05     1     4     8     8
-4.7888231000e-03     1     4     8     9
 3.1268330000e-04     1     4     9     1
 5.2634800000e-05     1     4     9     2
-4.2600000000e-08     1     4     9     3
-1.3220000000e-06     1     4     9     5
-2.9176900000e-05     1     4     9     6
 1.3304671000e-03     1     4     9     7
-5.2534055000e-03     1     4     9     8
 5.4035000000e-05     1     4     9     9
-9.4964576000e-03     1     5     2     1
-2.1286309000e-02     1     5     2     2
-1.6885000000e-06     1     5     2     3
-2.2921000000e-06     1     5     2     4
 5.4129250000e-04     1     5     2     6
-1.1678480000e-04     1     5     2     7
 9.5341900000e-05     1     5     2     8
 4.0626784700e-02     1     5     2     9
 4.3479400000e-05     1     5     3     1
 5.7831000000e-06     1     5     3     2
-1.9902877400e-02     1     5     3     3
-6.4000000000e-09     1     5     3     4
-4.2110400000e-05     1     5     3     6
-1.2902208700e-02     1     5     3     7
-3.4078605000e-03     1     5     3     8
 2.6313100000e-05     1     5     3     9
 5.9247800000e-05     1     5     4     1
 7.8796000000e-06     1     5     4     2
 4.1700000000e-08     1     5     4     3
-1.9902840600e-02     1     5     4     4
-5.8036900000e-05     1     5     4     6
-3.4113609000e-03     1     5     4     7
 1.2887259900e-02     1     5     4     8
 1.3585670000e-04     1     5     4     9
-1.7867673190e-01     1     5     5     1
-1.0095184080e-01     1     5     5     2
-6.0575400000e-05     1     5     5     3
-8.2361700000e-05     1     5     5     4
 3.5724908100e-02     1     5     5     6
-8.2028900000e-05     1     5     5     7
 6.6039800000e-05     1     5     5     8
-9.1656031000e-03     1     5     5     9
 1.0811476700e-02     1     5     6     1
 5.5378000000e-05     1     5     6     2
-9.0580000000e-07     1     5     6     3
-1.2621000000e-06     1     5     6     4
-1.9138842400e-02     1     5     6     6
 1.0800100000e-05     1     5     6     7
-8.9843000000e-06     1     5     6     8
-2.1765154300e-02     1     5     6     9
 2.1216950000e-04     1     5     7     1
 3.7330400000e-05     1     5     7     2
-6.0763790000e-04     1     5     7     3
-1.5995600000e-04     1     5     7     4
-4.9962200000e-05     1     5     7     6
-2.2574580100e-02     1     5     7     7
 5.9860000000e-07     1     5     7     8
 4.9115000000e-06     1     5     7     9
-1.7348880000e-04     1     5     8     1
-3.0521700000e-05     1     5     8     2
-1.5999440000e-04     1     5     8     3
 6.0767180000e-04     1     5     8     4
 4.0827000000e-05     1     5     8     6
-6.1010000000e-07     1     5     8     7
-2.2573624900e-02     1     5     8     8
 1.8054600000e-05     1     5     8     9
-8.3148656600e-02     1     5     9     1
-1.5340572700e-02     1     5     9     2
 2.1618000000e-06     1     5     9     3
 1.3220000000e-06     1     5     9     4
 8.0470422000e-03     1     5     9     6
 3.0679200000e-05     1     5     9     7
-3.4312000000e-05     1     5     9     8
-1.9071809200e-02     1     5     9     9
 9.6422178300e-02     1     6     2     1
 5.9705356900e-02     1     6     2     2
-2.5808900000e-05     1     6     2     3
-3.3318700000e-05     1     6     2     4
-5.4129250000e-04     1     6     2     5
-4.6401000000e-06     1     6     2     7
 3.6579000000e-06     1     6     2     8
-3.6292540000e-03     1     6     2     9
-8.2432400000e-05     1     6     3     1
-3.6554000000e-05     1     6     3     2
-1.6889279700e-02     1     6     3     3
 1.8100000000e-08     1     6     3     4
 4.2110400000e-05     1     6     3     5
 2.3674853100e-02     1     6     3     7
 6.2599186000e-03     1     6     3     8
 6.3266900000e-05     1     6     3     9
-1.0883050000e-04     1     6     4     1
-4.7262800000e-05     1     6     4     2
-1.1600000000e-07     1     6     4     3
-1.6889605900e-02     1     6     4     4
 5.8036900000e-05     1     6     4     5
 6.2589993000e-03     1     6     4     7
-2.3677572300e-02     1     6     4     8
 1.0375050000e-04     1     6     4     9
 1.0811476700e-02     1     6     5     1
-4.8591450000e-04     1     6     5     2
 4.1204600000e-05     1     6     5     3
 5.6774800000e-05     1     6     5     4
-3.5724908100e-02     1     6     5     5
 6.0762300000e-05     1     6     5     7
-4.9811300000e-05     1     6     5     8
-2.9812196500e-02     1     6     5     9
-2.2517791260e-01     1     6     6     1
-1.0924254130e-01     1     6     6     2
-6.5533700000e-05     1     6     6     3
-8.8361100000e-05     1     6     6     4
 1.9138842400e-02     1     6     6     5
 1.0637100000e-05     1     6     6     7
-8.3414000000e-06     1     6     6     8
-2.3994838000e-03     1     6     6     9
-4.7403000000e-06     1     6     7     1
-8.0085000000e-06     1     6     7     2
 1.7690201600e-02     1     6     7     3
 4.6754618000e-03     1     6     7     4
 4.9962200000e-05     1     6     7     5
-1.1412584600e-02     1     6     7     7
-3.2840000000e-07     1     6     7     8
-1.7226000000e-06     1     6     7     9
 3.6261000000e-06     1     6     8     1
 6.1983000000e-06     1     6     8     2
 4.6758113000e-03     1     6     8     3
-1.7690599500e-02     1     6     8     4
-4.0827000000e-05     1     6     8     5
 2.1530000000e-07     1     6     8     7
-1.1415238100e-02     1     6     8     8
 8.5274000000e-06     1     6     8     9
-5.1412812000e-03     1     6     9     1
-3.4938957000e-03     1     6     9     2
 1.5915100000e-05     1     6     9     3
 2.9176900000e-05     1     6     9     4
-8.0470422000e-03     1     6     9     5
 1.2303000000e-06     1     6     9     7
 5.3520000000e-07     1     6     9     8
-1.2690631900e-02     1     6     9     9
 1.0564060000e-04     1     7     2     1
 5.7208100000e-05     1     7     2     2
 3.8949583400e-02     1     7     2     3
 1.0297548800e-02     1     7     2     4
 1.1678480000e-04     1     7     2     5
 4.6401000000e-06     1     7     2     6
 1.8649000000e-06     1     7     2     8
-1.9392000000e-06     1     7     2     9
 7.1547732900e-02     1     7     3     1
 5.2485724600e-02     1     7     3     2
-9.5921100000e-05     1     7     3     3
-5.8715200000e-05     1     7     3     4
 1.2902208700e-02     1     7     3     5
-2.3674853100e-02     1     7     3     6
 2.4161200000e-05     1     7     3     8
-3.8297930000e-04     1     7     3     9
 1.8912066100e-02     1     7     4     1
 1.3873629100e-02     1     7     4     2
-5.8197400000e-05     1     7     4     3
-5.6717400000e-05     1     7     4     4
 3.4113609000e-03     1     7     4     5
-6.2589993000e-03     1     7     4     6
-1.8546900000e-05     1     7     4     8
 3.2690700000e-05     1     7     4     9
 2.1216950000e-04     1     7     5     1
 1.5411520000e-04     1     7     5     2
 1.2294570800e-02     1     7     5     3
 3.2514049000e-03     1     7     5     4
 8.2028900000e-05     1     7     5     5
-6.0762300000e-05     1     7     5     6
 1.2087000000e-06     1     7     5     8
-2.5767700000e-05     1     7     5     9
-4.7403000000e-06     1     7     6     1
-3.3684000000e-06     1     7     6     2
-5.9846515000e-03     1     7     6     3
-1.5835375000e-03     1     7     6     4
-1.0800100000e-05     1     7     6     5
-1.0637100000e-05     1     7     6     6
-5.4370000000e-07     1     7     6     8
-2.9529000000e-06     1     7     6     9
-2.2770971840e-01     1     7     7     1
-1.0918584880e-01     1     7     7     2
-5.4630500000e-05     1     7     7     3
-8.6023900000e-05     1     7     7     4
 2.2574580100e-02     1     7     7     5
 1.1412584600e-02     1     7     7     6
-1.0588200000e-05     1     7     7     8
-8.3033700000e-04     1     7     7     9
-2.8700000000e-08     1     7     8     1
 9.2910000000e-07     1     7     8     2
 1.2354100000e-05     1     7     8     3
-1.4383000000e-05     1     7     8     4
 6.1010000000e-07     1     7     8     5
-2.1530000000e-07     1     7     8     6
-1.3551700000e-05     1     7     8     8
 2.1275300000e-05     1     7     8     9
-7.4415000000e-06     1     7     9     1
-4.7888000000e-06     1     7     9     2
-5.2240139000e-03     1     7     9     3
-1.3304671000e-03     1     7     9     4
-3.0679200000e-05     1     7     9     5
-1.2303000000e-06     1     7     9     6
 3.8220000000e-07     1     7     9     8
-1.3054000000e-05     1     7     9     9
-8.0760300000e-05     1     8     2     1
-4.3566300000e-05     1     8     2     2
 1.0299326000e-02     1     8     2     3
-3.8955110200e-02     1     8     2     4
-9.5341900000e-05     1     8     2     5
-3.6579000000e-06     1     8     2     6
-1.8649000000e-06     1     8     2     7
 4.1945000000e-06     1     8     2     9
 1.8916846800e-02     1     8     3     1
 1.3875952500e-02     1     8     3     2
 1.0445200000e-05     1     8     3     3
 2.3417300000e-05     1     8     3     4
 3.4078605000e-03     1     8     3     5
-6.2599186000e-03     1     8     3     6
-2.4161200000e-05     1     8     3     7
-2.5531110000e-04     1     8     3     9
-7.1563099200e-02     1     8     4     1
-5.2492565400e-02     1     8     4     2
 2.4008600000e-05     1     8     4     3
 1.1024550000e-04     1     8     4     4
-1.2887259900e-02     1     8     4     5
 2.3677572300e-02     1     8     4     6
 1.8546900000e-05     1     8     4     7
 4.6458240000e-04     1     8     4     9
-1.7348880000e-04     1     8     5     1
-1.2586360000e-04     1     8     5     2
 3.2478661000e-03     1     8     5     3
-1.2279588100e-02     1     8     5     4
-6.6039800000e-05     1     8     5     5
 4.9811300000e-05     1     8     5     6
-1.2087000000e-06     1     8     5     7
 5.2366600000e-05     1     8     5     9
 3.6261000000e-06     1     8     6     1
 2.5404000000e-06     1     8     6     2
-1.5841073000e-03     1     8     6     3
 5.9869728000e-03     1     8     6     4
 8.9843000000e-06     1     8     6     5
 8.3414000000e-06     1     8     6     6
 5.4370000000e-07     1     8     6     7
 7.9922000000e-06     1     8     6     9
-2.8700000000e-08     1     8     7     1
-9.3580000000e-07     1     8     7     2
-1.1807100000e-05     1     8     7     3
 4.1639000000e-06     1     8     7     4
-5.9860000000e-07     1     8     7     5
 3.2840000000e-07     1     8     7     6
 1.0588200000e-05     1     8     7     7
 2.0893100000e-05     1     8     7     9
-2.2771974520e-01     1     8     8     1
-1.0919295950e-01     1     8     8     2
-6.5080400000e-05     1     8     8     3
-7.7152000000e-05     1     8     8     4
 2.2573624900e-02     1     8     8     5
 1.1415238100e-02     1     8     8     6
 1.3551700000e-05     1     8     8     7
-8.0402360000e-04     1     8     8     9
 1.8462700000e-05     1     8     9     1
 1.3652400000e-05     1     8     9     2
-1.4370823000e-03     1     8     9     3
 5.2534055000e-03     1     8     9     4
 3.4312000000e-05     1     8     9     5
-5.3520000000e-07     1     8     9     6
-3.8220000000e-07     1     8     9     7
 4.6012000000e-06     1     8     9     9
 1.9395173800e-02     1     9     2     1
 4.1149636000e-03     1     9     2     2
 7.5606600000e-05     1     9     2     3
 1.3888360000e-04     1     9     2     4
-4.0626784700e-02     1     9     2     5
 3.6292540000e-03     1     9     2     6
 1.9392000000e-06     1     9     2     7
-4.1945000000e-06     1     9     2     8
 1.5427720000e-04     1     9     3     1
 1.0646940000e-04     1     9     3     2
-6.1400927000e-03     1     9     3     3
 4.0308530000e-04     1     9     3     4
-2.6313100000e-05     1     9     3     5
-6.3266900000e-05     1     9     3     6
 3.8297930000e-04     1     9     3     7
 2.5531110000e-04     1     9     3     8
 3.1268330000e-04     1     9     4     1
 1.9151840000e-04     1     9     4     2
 4.0304270000e-04     1     9     4     3
-6.1404018000e-03     1     9     4     4
-1.3585670000e-04     1     9     4     5
-1.0375050000e-04     1     9     4     6
-3.2690700000e-05     1     9     4     7
-4.6458240000e-04     1     9     4     8
-8.3148656600e-02     1     9     5     1
-5.5967357400e-02     1     9     5     2
-2.4151300000e-05     1     9     5     3
-1.3453470000e-04     1     9     5     4
 9.1656031000e-03     1     9     5     5
 2.9812196500e-02     1     9     5     6
 2.5767700000e-05     1     9     5     7
-5.2366600000e-05     1     9     5     8
-5.1412812000e-03     1     9     6     1
 1.3535830000e-04     1     9     6     2
-4.7351800000e-05     1     9     6     3
-7.4573600000e-05     1     9     6     4
 2.1765154300e-02     1     9     6     5
 2.3994838000e-03     1     9     6     6
 2.9529000000e-06     1     9     6     7
-7.9922000000e-06     1     9     6     8
-7.4415000000e-06     1     9     7     1
-2.8496000000e-06     1     9     7     2
-4.8410346000e-03     1     9     7     3
-1.3631578000e-03     1     9     7     4
-4.9115000000e-06     1     9     7     5
 1.7226000000e-06     1     9     7     6
 8.3033700000e-04     1     9     7     7
-2.0893100000e-05     1     9     7     8
 1.8462700000e-05     1     9     8     1
 9.4579000000e-06     1     9     8     2
-1.1817712000e-03     1     9     8     3
 4.7888231000e-03     1     9     8     4
-1.8054600000e-05     1     9     8     5
-8.5274000000e-06     1     9     8     6
-2.1275300000e-05     1     9     8     7
 8.0402360000e-04     1     9     8     8
-2.4766055890e-01     1     9     9     1
-1.2469278610e-01     1     9     9     2
-5.1202800000e-05     1     9     9     3
-5.4035000000e-05     1     9     9     4
 1.9071809200e-02     1     9     9     5
 1.2690631900e-02     1     9     9     6
 1.3054000000e-05     1     9     9     7
-4.6012000000e-06     1     9     9     8
-1.2745355840e-01     2     1     1     2
 2.4964400000e-05     2     1     1     3
 3.4034900000e-05     2     1     1     4
-9.4964576000e-03     2     1     1     5
 9.6422178300e-02     2     1     1     6
 1.0564060000e-04     2     1     1     7
-8.0760300000e-05     2     1     1     8
 1.9395173800e-02     2     1     1     9
-5.9005600000e-05     2     1     3     2
 9.6291047700e-02     2     1     3     3
-7.7200000000e-08     2     1     3     4
-7.4716000000e-06     2     1     3     5
 1.0745100000e-05     2     1     3     6
-1.3536141200e-02     2     1     3     7
-3.5766265000e-03     2     1     3     8
-3.0862800000e-05     2     1     3     9
-8.0263400000e-05     2     1     4     2
 1.4090000000e-07     2     1     4     3
 9.6291435100e-02     2     1     4     4
-1.0171700000e-05     2     1     4     5
 1.3944100000e-05     2     1     4     6
-3.5760803000e-03     2     1     4     7
 1.3537455200e-02     2     1     4     8
-5.2634800000e-05     2     1     4     9
 2.1286309000e-02     2     1     5     2
-5.7831000000e-06     2     1     5     3
-7.8796000000e-06     2     1     5     4
 1.0095184080e-01     2     1     5     5
-5.5378000000e-05     2     1     5     6
-3.7330400000e-05     2     1     5     7
 3.0521700000e-05     2     1     5     8
 1.5340572700e-02     2     1     5     9
-5.9705356900e-02     2     1     6     2
 3.6554000000e-05     2     1     6     3
 4.7262800000e-05     2     1     6     4
 4.8591450000e-04     2     1     6     5
 1.0924254130e-01     2     1     6     6
 8.0085000000e-06     2     1     6     7
-6.1983000000e-06     2     1     6     8
 3.4938957000e-03     2     1     6     9
-5.7208100000e-05     2     1     7     2
-5.2485724600e-02     2     1     7     3
-1.3873629100e-02     2     1     7     4
-1.5411520000e-04     2     1     7     5
 3.3684000000e-06     2     1     7     6
 1.0918584880e-01     2     1     7     7
-9.2910000000e-07     2     1     7     8
 4.7888000000e-06     2     1     7     9
 4.3566300000e-05     2     1     8     2
-1.3875952500e-02     2     1     8     3
 5.2492565400e-02     2     1     8     4
 1.2586360000e-04     2     1     8     5
-2.5404000000e-06     2     1     8     6
 9.3580000000e-07     2     1     8     7
 1.0919295950e-01     2     1     8     8
-1.3652400000e-05     2     1     8     9
-4.1149636000e-03     2     1     9     2
-1.0646940000e-04     2     1     9     3
-1.9151840000e-04     2     1     9     4
 5.5967357400e-02     2     1     9     5
-1.3535830000e-04     2     1     9     6
 2.8496000000e-06     2     1     9     7
-9.4579000000e-06     2     1     9     8
 1.2469278610e-01     2     1     9     9
 1.2745355840e-01     2     2     1     1
 5.9005600000e-05     2     2     1     3
 8.0263400000e-05     2     2     1     4
-2.1286309000e-02     2     2     1     5
 5.9705356900e-02     2     2     1     6
 5.7208100000e-05     2     2     1     7
-4.3566300000e-05     2     2     1     8
 4.1149636000e-03     2     2     1     9
 5.9005600000e-05     2     2     3     1
 1.6692356270e-01     2     2     3     3
 1.6160000000e-07     2     2     3     4
-3.8591700000e-05     2     2     3     5
 8.1086500000e-05     2     2     3     6
-8.2023498200e-02     2     2     3     7
-2.1686804000e-02     2     2     3     8
-1.4807080000e-04     2     2     3     9
 8.0263400000e-05     2     2     4     1
 1.6160000000e-07     2     2     4     3
 1.6692474780e-01     2     2     4     4
-5.2577500000e-05     2     2     4     5
 1.0638490000e-04     2     2     4     6
-2.1681707800e-02     2     2     4     7
 8.2038944800e-02     2     2     4     8
-3.0756660000e-04     2     2     4     9
-2.1286309000e-02     2     2     5     1
-3.8591700000e-05     2     2     5     3
-5.2577500000e-05     2     2     5     4
 1.8699409140e-01     2     2     5     5
-6.6706571000e-03     2     2     5     6
-2.4033640000e-04     2     2     5     7
 1.9634370000e-04     2     2     5     8
 8.2024123000e-02     2     2     5     9
 5.9705356900e-02     2     2     6     1
 8.1086500000e-05     2     2     6     3
 1.0638490000e-04     2     2     6     4
-6.6706571000e-03     2     2     6     5
 1.3547645940e-01     2     2     6     6
-2.6791600000e-05     2     2     6     7
 2.0436600000e-05     2     2     6     8
 3.2404260000e-03     2     2     6     9
 5.7208100000e-05     2     2     7     1
-8.2023498200e-02     2     2     7     3
-2.1681707800e-02     2     2     7     4
-2.4033640000e-04     2     2     7     5
-2.6791600000e-05     2     2     7     6
 1.6851210570e-01     2     2     7     7
 9.3100000000e-08     2     2     7     8
 8.9045000000e-06     2     2     7     9
-4.3566300000e-05     2     2     8     1
-2.1686804000e-02     2     2     8     3
 8.2038944800e-02     2     2     8     4
 1.9634370000e-04     2     2     8     5
 2.0436600000e-05     2     2     8     6
 9.3100000000e-08     2     2     8     7
 1.6851361940e-01     2     2     8     8
-1.4048000000e-06     2     2     8     9
 4.1149636000e-03     2     2     9     1
-1.4807080000e-04     2     2     9     3
-3.0756660000e-04     2     2     9     4
 8.2024123000e-02     2     2     9     5
 3.2404260000e-03     2     2     9     6
 8.9045000000e-06     2     2     9     7
-1.4048000000e-06     2     2     9     8
 1.8173188870e-01     2     2     9     9
-2.4964400000e-05     2     3     1     1
-5.9005600000e-05     2     3     1     2
-2.1810000000e-07     2     3     1     4
-1.6885000000e-06     2     3     1     5
-2.5808900000e-05     2     3     1     6
 3.8949583400e-02     2     3     1     7
 1.0299326000e-02     2     3     1     8
 7.5606600000e-05     2     3     1     9