&FCI NORB=  9,NELEC=  2,MS2=0,
 ORBSYM=1,1,1,1,1,1,1,1,1
 ISYM=1,
&END
 1.3670554080e-01     1     1     2     2
-1.3869000000e-06     1     1     2     3
 1.3432000000e-06     1     1     2     4
 2.8172457000e-03     1     1     2     5
 1.0140910840e-01     1     1     2     6
 1.4314680000e-04     1     1     2     7
 3.1606700000e-04     1     1     2     8
 2.2836543300e-02     1     1     2     9
-1.3869000000e-06     1     1     3     2
 1.7064409330e-01     1     1     3     3
-2.1300000000e-08     1     1     3     4
-1.4437900000e-05     1     1     3     5
 2.7225640000e-04     1     1     3     6
-2.6479396100e-02     1     1     3     7
-7.7848655100e-02     1     1     3     8
 8.1013700000e-05     1     1     3     9
 1.3432000000e-06     1     1     4     2
-2.1300000000e-08     1     1     4     3
 1.7063974310e-01     1     1     4     4
 1.7326300000e-05     1     1     4     5
 2.2602100000e-05     1     1     4     6
-7.7854844400e-02     1     1     4     7
 2.6475388600e-02     1     1     4     8
 2.0349000000e-05     1     1     4     9
 2.8172457000e-03     1     1     5     2
-1.4437900000e-05     1     1     5     3
 1.7326300000e-05     1     1     5     4
 2.0241802630e-01     1     1     5     5
 1.7854465700e-02     1     1     5     6
-2.0179000000e-06     1     1     5     7
 2.7941200000e-05     1     1     5     8
-8.0076577100e-02     1     1     5     9
 1.0140910840e-01     1     1     6     2
 2.7225640000e-04     1     1     6     3
 2.2602100000e-05     1     1     6     4
 1.7854465700e-02     1     1     6     5
 2.4635062430e-01     1     1     6     6
 4.5601000000e-06     1     1     6     7
 2.1091800000e-05     1     1     6     8
 1.6510490000e-03     1     1     6     9
 1.4314680000e-04     1     1     7     2
-2.6479396100e-02     1     1     7     3
-7.7854844400e-02     1     1     7     4
-2.0179000000e-06     1     1     7     5
 4.5601000000e-06     1     1     7     6
 2.4855177820e-01     1     1     7     7
 9.6360000000e-07     1     1     7     8
-1.3652100000e-05     1     1     7     9
 3.1606700000e-04     1     1     8     2
-7.7848655100e-02     1     1     8     3
 2.6475388600e-02     1     1     8     4
 2.7941200000e-05     1     1     8     5
 2.1091800000e-05     1     1     8     6
 9.6360000000e-07     1     1     8     7
 2.4855085880e-01     1     1     8     8
 7.2468000000e-06     1     1     8     9
 2.2836543300e-02     1     1     9     2
 8.1013700000e-05     1     1     9     3
 2.0349000000e-05     1     1     9     4
-8.0076577100e-02     1     1     9     5
 1.6510490000e-03     1     1     9     6
-1.3652100000e-05     1     1     9     7
 7.2468000000e-06     1     1     9     8
 2.5087507220e-01     1     1     9     9
-1.3670554080e-01     1     2     2     1
-4.0235000000e-06     1     2     2     3
 4.3822000000e-06     1     2     2     4
 5.1814728000e-03     1     2     2     5
 6.1260874600e-02     1     2     2     6
 8.8541600000e-05     1     2     2     7
 1.9180240000e-04     1     2     2     8
 1.5614708300e-02     1     2     2     9
 1.3869000000e-06     1     2     3     1
 1.0261417920e-01     1     2     3     3
 1.4610000000e-07     1     2     3     4
-2.6420000000e-07     1     2     3     5
 1.8502800000e-04     1     2     3     6
-1.7990999500e-02     1     2     3     7
-5.2891937000e-02     1     2     3     8
 4.9899100000e-05     1     2     3     9
-1.3432000000e-06     1     2     4     1
-1.5140000000e-07     1     2     4     3
 1.0261268220e-01     1     2     4     4
 3.2210000000e-07     1     2     4     5
 1.3854100000e-05     1     2     4     6
-5.2895571200e-02     1     2     4     7
 1.7988636700e-02     1     2     4     8
 1.5950200000e-05     1     2     4     9
-2.8172457000e-03     1     2     5     1
-1.0021000000e-06     1     2     5     3
 1.3528000000e-06     1     2     5     4
 1.0918539460e-01     1     2     5     5
 9.9944928000e-03     1     2     5     6
-1.6020000000e-06     1     2     5     7
 1.1233400000e-05     1     2     5     8
-5.2613035600e-02     1     2     5     9
-1.0140910840e-01     1     2     6     1
 4.2816400000e-05     1     2     6     3
 3.9821000000e-06     1     2     6     4
 2.5862686000e-03     1     2     6     5
 1.1752651150e-01     1     2     6     6
 5.8779000000e-06     1     2     6     7
 1.6369400000e-05     1     2     6     8
 1.9271085000e-03     1     2     6     9
-1.4314680000e-04     1     2     7     1
-4.1845790000e-03     1     2     7     3
-1.2309912100e-02     1     2     7     4
-3.9904000000e-06     1     2     7     5
 4.5791000000e-06     1     2     7     6
 1.1749192160e-01     1     2     7     7
 2.1000000000e-09     1     2     7     8
-6.6026000000e-06     1     2     7     9
-3.1606700000e-04     1     2     8     1
-1.2308369600e-02     1     2     8     3
 4.1843680000e-03     1     2     8     4
 7.4930000000e-06     1     2     8     5
 1.7164500000e-05     1     2     8     6
 1.2229000000e-06     1     2     8     7
 1.1749090780e-01     1     2     8     8
 4.6516000000e-06     1     2     8     9
-2.2836543300e-02     1     2     9     1
 1.4697000000e-05     1     2     9     3
-6.9030000000e-07     1     2     9     4
-1.5503965500e-02     1     2     9     5
 2.4348140000e-04     1     2     9     6
-6.9156000000e-06     1     2     9     7
 1.0193000000e-06     1     2     9     8
 1.2149838720e-01     1     2     9     9
 1.3869000000e-06     1     3     2     1
 4.0235000000e-06     1     3     2     2
 2.9750000000e-07     1     3     2     4
 7.3790000000e-07     1     3     2     5
 1.4221160000e-04     1     3     2     6
-1.3806420500e-02     1     3     2     7
-4.0583567400e-02     1     3     2     8
 3.5202100000e-05     1     3     2     9
-1.7064409330e-01     1     3     3     1
-1.0261417920e-01     1     3     3     2
 3.2508000000e-06     1     3     3     4
 4.1909228000e-03     1     3     3     5
-2.0204692800e-02     1     3     3     6
-3.5813300000e-05     1     3     3     7
-3.8069100000e-05     1     3     3     8
-1.1446974400e-02     1     3     3     9
 2.1300000000e-08     1     3     4     1
 1.5140000000e-07     1     3     4     2
 2.9066000000e-06     1     3     4     4
-6.1000000000e-09     1     3     4     5
 2.7200000000e-08     1     3     4     6
 7.7581000000e-06     1     3     4     7
-1.5830400000e-05     1     3     4     8
 5.9093620000e-04     1     3     4     9
 1.4437900000e-05     1     3     5     1
 1.0021000000e-06     1     3     5     2
-1.5000000000e-08     1     3     5     4
 6.0958000000e-06     1     3     5     5
 6.2965900000e-05     1     3     5     6
-4.6902767000e-03     1     3     5     7
-1.3783381500e-02     1     3     5     8
-1.0616340000e-04     1     3     5     9
-2.7225640000e-04     1     3     6     1
-4.2816400000e-05     1     3     6     2
-1.8460000000e-07     1     3     6     4
-1.6685000000e-06     1     3     6     5
-4.3033600000e-05     1     3     6     6
-2.6555643000e-03     1     3     6     7
-7.8002291000e-03     1     3     6     8
 1.6886500000e-05     1     3     6     9
 2.6479396100e-02     1     3     7     1
 4.1845790000e-03     1     3     7     2
-8.0070000000e-07     1     3     7     4
 9.3782500000e-05     1     3     7     5
 6.1486094000e-03     1     3     7     6
 8.9131000000e-06     1     3     7     7
 7.5204000000e-06     1     3     7     8
-2.6601840000e-04     1     3     7     9
 7.7848655100e-02     1     3     8     1
 1.2308369600e-02     1     3     8     2
-4.0210000000e-07     1     3     8     4
 2.7778300000e-04     1     3     8     5
 1.8079391100e-02     1     3     8     6
 1.5138800000e-05     1     3     8     7
 4.7201300000e-05     1     3     8     8
-3.6067180000e-04     1     3     8     9
-8.1013700000e-05     1     3     9     1
-1.4697000000e-05     1     3     9     2
-1.0100000000e-08     1     3     9     4
-3.2178000000e-06     1     3     9     5
 6.3184000000e-06     1     3     9     6
-1.1741003000e-03     1     3     9     7
-3.7620567000e-03     1     3     9     8
-9.6754000000e-06     1     3     9     9
-1.3432000000e-06     1     4     2     1
-4.3822000000e-06     1     4     2     2
-2.9750000000e-07     1     4     2     3
-1.0307000000e-06     1     4     2     5
 9.8720000000e-06     1     4     2     6
-4.0585659100e-02     1     4     2     7
 1.3804268700e-02     1     4     2     8
 1.6640500000e-05     1     4     2     9
 2.1300000000e-08     1     4     3     1
-1.4610000000e-07     1     4     3     2
-3.2508000000e-06     1     4     3     3
 8.9000000000e-09     1     4     3     5
 2.1180000000e-07     1     4     3     6
 8.5588000000e-06     1     4     3     7
-1.5428300000e-05     1     4     3     8
 5.9094630000e-04     1     4     3     9
-1.7063974310e-01     1     4     4     1
-1.0261268220e-01     1     4     4     2
-2.9066000000e-06     1     4     4     3
 4.1912039000e-03     1     4     4     5
-2.0203160200e-02     1     4     4     6
-5.8189100000e-05     1     4     4     7
-4.4484400000e-05     1     4     4     8
-1.3828673500e-02     1     4     4     9
-1.7326300000e-05     1     4     5     1
-1.3528000000e-06     1     4     5     2
 1.5000000000e-08     1     4     5     3
-6.8880000000e-06     1     4     5     5
-9.4313000000e-06     1     4     5     6
-1.3776260700e-02     1     4     5     7
 4.6964485000e-03     1     4     5     8
 5.3062000000e-05     1     4     5     9
-2.2602100000e-05     1     4     6     1
-3.9821000000e-06     1     4     6     2
 1.8460000000e-07     1     4     6     3
 7.8780000000e-07     1     4     6     5
-5.5388000000e-06     1     4     6     6
-7.7996873000e-03     1     4     6     7
 2.6547561000e-03     1     4     6     8
-1.1819000000e-06     1     4     6     9
 7.7854844400e-02     1     4     7     1
 1.2309912100e-02     1     4     7     2
 8.0070000000e-07     1     4     7     3
 2.7834980000e-04     1     4     7     5
 1.8080756500e-02     1     4     7     6
 4.8268000000e-06     1     4     7     7
 6.6555700000e-05     1     4     7     8
 1.1316330000e-04     1     4     7     9
-2.6475388600e-02     1     4     8     1
-4.1843680000e-03     1     4     8     2
 4.0210000000e-07     1     4     8     3
-9.3604400000e-05     1     4     8     5
-6.1485857000e-03     1     4     8     6
-2.8352300000e-05     1     4     8     7
-2.1101100000e-05     1     4     8     8
-1.8149960000e-04     1     4     8     9
-2.0349000000e-05     1     4     9     1
 6.9030000000e-07     1     4     9     2
 1.0100000000e-08     1     4     9     3
-7.1790000000e-07     1     4     9     5
-7.6002000000e-06     1     4     9     6
-4.0173132000e-03     1     4     9     7
 1.4681595000e-03     1     4     9     8
 4.0215000000e-06     1     4     9     9
-2.8172457000e-03     1     5     2     1
-5.1814728000e-03     1     5     2     2
-7.3790000000e-07     1     5     2     3
 1.0307000000e-06     1     5     2     4
 7.4082242000e-03     1     5     2     6
 2.3884000000e-06     1     5     2     7
 3.7404000000e-06     1     5     2     8
-3.7109070100e-02     1     5     2     9
 1.4437900000e-05     1     5     3     1
 2.6420000000e-07     1     5     3     2
-4.1909228000e-03     1     5     3     3
-8.9000000000e-09     1     5     3     4
 6.4634400000e-05     1     5     3     6
-4.7840592000e-03     1     5     3     7
-1.4061164500e-02     1     5     3     8
-1.0294560000e-04     1     5     3     9
-1.7326300000e-05     1     5     4     1
-3.2210000000e-07     1     5     4     2
 6.1000000000e-09     1     5     4     3
-4.1912039000e-03     1     5     4     4
-1.0219100000e-05     1     5     4     6
-1.4054610500e-02     1     5     4     7
 4.7900529000e-03     1     5     4     8
 5.3779900000e-05     1     5     4     9
-2.0241802630e-01     1     5     5     1
-1.0918539460e-01     1     5     5     2
-6.0958000000e-06     1     5     5     3
 6.8880000000e-06     1     5     5     4
-3.3985295200e-02     1     5     5     6
 2.1853000000e-06     1     5     5     7
-1.6229310000e-04     1     5     5     8
 2.1245018900e-02     1     5     5     9
-1.7854465700e-02     1     5     6     1
-2.5862686000e-03     1     5     6     2
 1.6685000000e-06     1     5     6     3
-7.8780000000e-07     1     5     6     4
-3.9321642000e-03     1     5     6     6
-5.1556000000e-06     1     5     6     7
 1.2608400000e-05     1     5     6     8
-1.8636951600e-02     1     5     6     9
 2.0179000000e-06     1     5     7     1
 3.9904000000e-06     1     5     7     2
-9.3782500000e-05     1     5     7     3
-2.7834980000e-04     1     5     7     4
 3.6354000000e-06     1     5     7     6
-6.4582868000e-03     1     5     7     7
-2.2459000000e-06     1     5     7     8
-1.3309300000e-05     1     5     7     9
-2.7941200000e-05     1     5     8     1
-7.4930000000e-06     1     5     8     2
-2.7778300000e-04     1     5     8     3
 9.3604400000e-05     1     5     8     4
 1.8536300000e-05     1     5     8     6
 2.3676000000e-06     1     5     8     7
-6.4582756000e-03     1     5     8     8
-4.0391000000e-05     1     5     8     9
 8.0076577100e-02     1     5     9     1
 1.5503965500e-02     1     5     9     2
 3.2178000000e-06     1     5     9     3
 7.1790000000e-07     1     5     9     4
 8.7406130000e-03     1     5     9     6
 1.5089000000e-05     1     5     9     7
 1.3584600000e-05     1     5     9     8
-3.2881018000e-03     1     5     9     9
-1.0140910840e-01     1     6     2     1
-6.1260874600e-02     1     6     2     2
-1.4221160000e-04     1     6     2     3
-9.8720000000e-06     1     6     2     4
-7.4082242000e-03     1     6     2     5
 1.2988000000e-06     1     6     2     7
-7.9510000000e-07     1     6     2     8
 1.6836271000e-03     1     6     2     9
-2.7225640000e-04     1     6     3     1
-1.8502800000e-04     1     6     3     2
 2.0204692800e-02     1     6     3     3
-2.1180000000e-07     1     6     3     4
-6.4634400000e-05     1     6     3     5
-8.8041737000e-03     1     6     3     7
-2.5879620200e-02     1     6     3     8
 1.0568100000e-05     1     6     3     9
-2.2602100000e-05     1     6     4     1
-1.3854100000e-05     1     6     4     2
-2.7200000000e-08     1     6     4     3
 2.0203160200e-02     1     6     4     4
 1.0219100000e-05     1     6     4     5
-2.5880443800e-02     1     6     4     7
 8.8033418000e-03     1     6     4     8
 6.4183000000e-06     1     6     4     9
-1.7854465700e-02     1     6     5     1
-9.9944928000e-03     1     6     5     2
-6.2965900000e-05     1     6     5     3
 9.4313000000e-06     1     6     5     4
 3.3985295200e-02     1     6     5     5
-8.7910000000e-06     1     6     5     7
-5.9279000000e-06     1     6     5     8
-2.7377564600e-02     1     6     5     9
-2.4635062430e-01     1     6     6     1
-1.1752651150e-01     1     6     6     2
 4.3033600000e-05     1     6     6     3
 5.5388000000e-06     1     6     6     4
 3.9321642000e-03     1     6     6     5
-1.1719200000e-05     1     6     6     7
-4.3444000000e-05     1     6     6     8
 3.9720636000e-03     1     6     6     9
-4.5601000000e-06     1     6     7     1
-4.5791000000e-06     1     6     7     2
-6.1486094000e-03     1     6     7     3
-1.8080756500e-02     1     6     7     4
-3.6354000000e-06     1     6     7     5
 1.2847527000e-02     1     6     7     7
-3.7640000000e-07     1     6     7     8
-3.0517000000e-06     1     6     7     9
-2.1091800000e-05     1     6     8     1
-1.7164500000e-05     1     6     8     2
-1.8079391100e-02     1     6     8     3
 6.1485857000e-03     1     6     8     4
-1.8536300000e-05     1     6     8     5
 2.9080000000e-07     1     6     8     7
 1.2846333200e-02     1     6     8     8
 3.2812000000e-06     1     6     8     9
-1.6510490000e-03     1     6     9     1
-2.4348140000e-04     1     6     9     2
-6.3184000000e-06     1     6     9     3
 7.6002000000e-06     1     6     9     4
-8.7406130000e-03     1     6     9     5
-4.0540000000e-06     1     6     9     7
 1.0511000000e-06     1     6     9     8
 1.0701932300e-02     1     6     9     9
-1.4314680000e-04     1     7     2     1
-8.8541600000e-05     1     7     2     2
 1.3806420500e-02     1     7     2     3
 4.0585659100e-02     1     7     2     4
-2.3884000000e-06     1     7     2     5
-1.2988000000e-06     1     7     2     6
-1.2208000000e-06     1     7     2     8
 3.1300000000e-07     1     7     2     9
 2.6479396100e-02     1     7     3     1
 1.7990999500e-02     1     7     3     2
 3.5813300000e-05     1     7     3     3
-8.5588000000e-06     1     7     3     4
 4.7840592000e-03     1     7     3     5
 8.8041737000e-03     1     7     3     6
-7.6184000000e-06     1     7     3     8
 9.0808190000e-04     1     7     3     9
 7.7854844400e-02     1     7     4     1
 5.2895571200e-02     1     7     4     2
-7.7581000000e-06     1     7     4     3
 5.8189100000e-05     1     7     4     4
 1.4054610500e-02     1     7     4     5
 2.5880443800e-02     1     7     4     6
 9.4908000000e-05     1     7     4     8
 4.1304765000e-03     1     7     4     9
 2.0179000000e-06     1     7     5     1
 1.6020000000e-06     1     7     5     2
 4.6902767000e-03     1     7     5     3
 1.3776260700e-02     1     7     5     4
-2.1853000000e-06     1     7     5     5
 8.7910000000e-06     1     7     5     6
-4.6135000000e-06     1     7     5     8
-2.8398300000e-05     1     7     5     9
-4.5601000000e-06     1     7     6     1
-5.8779000000e-06     1     7     6     2
 2.6555643000e-03     1     7     6     3
 7.7996873000e-03     1     7     6     4
 5.1556000000e-06     1     7     6     5
 1.1719200000e-05     1     7     6     6
-6.6720000000e-07     1     7     6     8
 1.0023000000e-06     1     7     6     9
-2.4855177820e-01     1     7     7     1
-1.1749192160e-01     1     7     7     2
-8.9131000000e-06     1     7     7     3
-4.8268000000e-06     1     7     7     4
 6.4582868000e-03     1     7     7     5
-1.2847527000e-02     1     7     7     6
-4.5057600000e-05     1     7     7     8
 1.9731490000e-03     1     7     7     9
-9.6360000000e-07     1     7     8     1
-1.2229000000e-06     1     7     8     2
-1.5138800000e-05     1     7     8     3
 2.8352300000e-05     1     7     8     4
-2.3676000000e-06     1     7     8     5
-2.9080000000e-07     1     7     8     6
 1.3868300000e-05     1     7     8     8
 5.7912400000e-05     1     7     8     9
 1.3652100000e-05     1     7     9     1
 6.9156000000e-06     1     7     9     2
 1.1741003000e-03     1     7     9     3
 4.0173132000e-03     1     7     9     4
-1.5089000000e-05     1     7     9     5
 4.0540000000e-06     1     7     9     6
 6.2960000000e-07     1     7     9     8
 1.1075200000e-05     1     7     9     9
-3.1606700000e-04     1     8     2     1
-1.9180240000e-04     1     8     2     2
 4.0583567400e-02     1     8     2     3
-1.3804268700e-02     1     8     2     4
-3.7404000000e-06     1     8     2     5
 7.9510000000e-07     1     8     2     6
 1.2208000000e-06     1     8     2     7
 3.6323000000e-06     1     8     2     9
 7.7848655100e-02     1     8     3     1
 5.2891937000e-02     1     8     3     2
 3.8069100000e-05     1     8     3     3
 1.5428300000e-05     1     8     3     4
 1.4061164500e-02     1     8     3     5
 2.5879620200e-02     1     8     3     6
 7.6184000000e-06     1     8     3     7
 3.4013849000e-03     1     8     3     9
-2.6475388600e-02     1     8     4     1
-1.7988636700e-02     1     8     4     2
 1.5830400000e-05     1     8     4     3
 4.4484400000e-05     1     8     4     4
-4.7900529000e-03     1     8     4     5
-8.8033418000e-03     1     8     4     6
-9.4908000000e-05     1     8     4     7
-1.6496591000e-03     1     8     4     9
-2.7941200000e-05     1     8     5     1
-1.1233400000e-05     1     8     5     2
 1.3783381500e-02     1     8     5     3
-4.6964485000e-03     1     8     5     4
 1.6229310000e-04     1     8     5     5
 5.9279000000e-06     1     8     5     6
 4.6135000000e-06     1     8     5     7
-5.3975600000e-05     1     8     5     9
-2.1091800000e-05     1     8     6     1
-1.6369400000e-05     1     8     6     2
 7.8002291000e-03     1     8     6     3
-2.6547561000e-03     1     8     6     4
-1.2608400000e-05     1     8     6     5
 4.3444000000e-05     1     8     6     6
 6.6720000000e-07     1     8     6     7
 2.2301000000e-06     1     8     6     9
-9.6360000000e-07     1     8     7     1
-2.1000000000e-09     1     8     7     2
-7.5204000000e-06     1     8     7     3
-6.6555700000e-05     1     8     7     4
 2.2459000000e-06     1     8     7     5
 3.7640000000e-07     1     8     7     6
 4.5057600000e-05     1     8     7     7
 5.7282800000e-05     1     8     7     9
-2.4855085880e-01     1     8     8     1
-1.1749090780e-01     1     8     8     2
-4.7201300000e-05     1     8     8     3
 2.1101100000e-05     1     8     8     4
 6.4582756000e-03     1     8     8     5
-1.2846333200e-02     1     8     8     6
-1.3868300000e-05     1     8     8     7
 2.0453162000e-03     1     8     8     9
-7.2468000000e-06     1     8     9     1
-1.0193000000e-06     1     8     9     2
 3.7620567000e-03     1     8     9     3
-1.4681595000e-03     1     8     9     4
-1.3584600000e-05     1     8     9     5
-1.0511000000e-06     1     8     9     6
-6.2960000000e-07     1     8     9     7
 4.2060800000e-05     1     8     9     9
-2.2836543300e-02     1     9     2     1
-1.5614708300e-02     1     9     2     2
-3.5202100000e-05     1     9     2     3
-1.6640500000e-05     1     9     2     4
 3.7109070100e-02     1     9     2     5
-1.6836271000e-03     1     9     2     6
-3.1300000000e-07     1     9     2     7
-3.6323000000e-06     1     9     2     8
-8.1013700000e-05     1     9     3     1
-4.9899100000e-05     1     9     3     2
 1.1446974400e-02     1     9     3     3
-5.9094630000e-04     1     9     3     4
 1.0294560000e-04     1     9     3     5
-1.0568100000e-05     1     9     3     6
-9.0808190000e-04     1     9     3     7
-3.4013849000e-03     1     9     3     8
-2.0349000000e-05     1     9     4     1
-1.5950200000e-05     1     9     4     2
-5.9093620000e-04     1     9     4     3
 1.3828673500e-02     1     9     4     4
-5.3779900000e-05     1     9     4     5
-6.4183000000e-06     1     9     4     6
-4.1304765000e-03     1     9     4     7
 1.6496591000e-03     1     9     4     8
 8.0076577100e-02     1     9     5     1
 5.2613035600e-02     1     9     5     2
 1.0616340000e-04     1     9     5     3
-5.3062000000e-05     1     9     5     4
-2.1245018900e-02     1     9     5     5
 2.7377564600e-02     1     9     5     6
 2.8398300000e-05     1     9     5     7
 5.3975600000e-05     1     9     5     8
-1.6510490000e-03     1     9     6     1
-1.9271085000e-03     1     9     6     2
-1.6886500000e-05     1     9     6     3
 1.1819000000e-06     1     9     6     4
 1.8636951600e-02     1     9     6     5
-3.9720636000e-03     1     9     6     6
-1.0023000000e-06     1     9     6     7
-2.2301000000e-06     1     9     6     8
 1.3652100000e-05     1     9     7     1
 6.6026000000e-06     1     9     7     2
 2.6601840000e-04     1     9     7     3
-1.1316330000e-04     1     9     7     4
 1.3309300000e-05     1     9     7     5
 3.0517000000e-06     1     9     7     6
-1.9731490000e-03     1     9     7     7
-5.7282800000e-05     1     9     7     8
-7.2468000000e-06     1     9     8     1
-4.6516000000e-06     1     9     8     2
 3.6067180000e-04     1     9     8     3
 1.8149960000e-04     1     9     8     4
 4.0391000000e-05     1     9     8     5
-3.2812000000e-06     1     9     8     6
-5.7912400000e-05     1     9     8     7
-2.0453162000e-03     1     9     8     8
-2.5087507220e-01     1     9     9     1
-1.2149838720e-01     1     9     9     2
 9.6754000000e-06     1     9     9     3
-4.0215000000e-06     1     9     9     4
 3.2881018000e-03     1     9     9     5
-1.0701932300e-02     1     9     9     6
-1.1075200000e-05     1     9     9     7
-4.2060800000e-05     1     9     9     8
-1.3670554080e-01     2     1     1     2
 1.3869000000e-06     2     1     1     3
-1.3432000000e-06     2     1     1     4
-2.8172457000e-03     2     1     1     5
-1.0140910840e-01     2     1     1     6
-1.4314680000e-04     2     1     1     7
-3.1606700000e-04     2     1     1     8
-2.2836543300e-02     2     1     1     9
-4.0235000000e-06     2     1     3     2
 1.0261417920e-01     2     1     3     3
-1.5140000000e-07     2     1     3     4
-1.0021000000e-06     2     1     3     5
 4.2816400000e-05     2     1     3     6
-4.1845790000e-03     2     1     3     7
-1.2308369600e-02     2     1     3     8
 1.4697000000e-05     2     1     3     9
 4.3822000000e-06     2     1     4     2
 1.4610000000e-07     2     1     4     3
 1.0261268220e-01     2     1     4     4
 1.3528000000e-06     2     1     4     5
 3.9821000000e-06     2     1     4     6
-1.2309912100e-02     2     1     4     7
 4.1843680000e-03     2     1     4     8
-6.9030000000e-07     2     1     4     9
 5.1814728000e-03     2     1     5     2
-2.6420000000e-07     2     1     5     3
 3.2210000000e-07     2     1     5     4
 1.0918539460e-01     2     1     5     5
 2.5862686000e-03     2     1     5     6
-3.9904000000e-06     2     1     5     7
 7.4930000000e-06     2     1     5     8
-1.5503965500e-02     2     1     5     9
 6.1260874600e-02     2     1     6     2
 1.8502800000e-04     2     1     6     3
 1.3854100000e-05     2     1     6     4
 9.9944928000e-03     2     1     6     5
 1.1752651150e-01     2     1     6     6
 4.5791000000e-06     2     1     6     7
 1.7164500000e-05     2     1     6     8
 2.4348140000e-04     2     1     6     9
 8.8541600000e-05     2     1     7     2
-1.7990999500e-02     2     1     7     3
-5.2895571200e-02     2     1     7     4
-1.6020000000e-06     2     1     7     5
 5.8779000000e-06     2     1     7     6
 1.1749192160e-01     2     1     7     7
 1.2229000000e-06     2     1     7     8
-6.9156000000e-06     2     1     7     9
 1.9180240000e-04     2     1     8     2
-5.2891937000e-02     2     1     8     3
 1.7988636700e-02     2     1     8     4
 1.1233400000e-05     2     1     8     5
 1.6369400000e-05     2     1     8     6
 2.1000000000e-09     2     1     8     7
 1.1749090780e-01     2     1     8     8
 1.0193000000e-06     2     1     8     9
 1.5614708300e-02     2     1     9     2
 4.9899100000e-05     2     1     9     3
 1.5950200000e-05     2     1     9     4
-5.2613035600e-02     2     1     9     5
 1.9271085000e-03     2     1     9     6
-6.6026000000e-06     2     1     9     7
 4.6516000000e-06     2     1     9     8
 1.2149838720e-01     2     1     9     9
 1.3670554080e-01     2     2     1     1
 4.0235000000e-06     2     2     1     3
-4.3822000000e-06     2     2     1     4
-5.1814728000e-03     2     2     1     5
-6.1260874600e-02     2     2     1     6
-8.8541600000e-05     2     2     1     7
-1.9180240000e-04     2     2     1     8
-1.5614708300e-02     2     2     1     9
 4.0235000000e-06     2     2     3     1
 1.7699633900e-01     2     2     3     3
-1.7200000000e-08     2     2     3     4
-9.2673000000e-06     2     2     3     5
 3.0271640000e-04     2     2     3     6
-2.9254058700e-02     2     2     3     7
-8.6002457100e-02     2     2     3     8
 7.9501400000e-05     2     2     3     9
-4.3822000000e-06     2     2     4     1
-1.7200000000e-08     2     2     4     3
 1.7699151250e-01     2     2     4     4
 1.1203600000e-05     2     2     4     5
 2.2941100000e-05     2     2     4     6
-8.6010183500e-02     2     2     4     7
 2.9250337800e-02     2     2     4     8
 3.0686700000e-05     2     2     4     9
-5.1814728000e-03     2     2     5     1
-9.2673000000e-06     2     2     5     3
 1.1203600000e-05     2     2     5     4
 2.0337958410e-01     2     2     5     5
 1.5223264200e-02     2     2     5     6
 1.4979000000e-06     2     2     5     7
 1.2064600000e-05     2     2     5     8
-7.4970392200e-02     2     2     5     9
-6.1260874600e-02     2     2     6     1
 3.0271640000e-04     2     2     6     3
 2.2941100000e-05     2     2     6     4
 1.5223264200e-02     2     2     6     5
 1.4690314620e-01     2     2     6     6
-3.7482500000e-05     2     2     6     7
-8.0515200000e-05     2     2     6     8
-2.7137181000e-03     2     2     6     9
-8.8541600000e-05     2     2     7     1
-2.9254058700e-02     2     2     7     3
-8.6010183500e-02     2     2     7     4
 1.4979000000e-06     2     2     7     5
-3.7482500000e-05     2     2     7     6
 1.7947995790e-01     2     2     7     7
-5.4430000000e-07     2     2     7     8
-9.8400000000e-06     2     2     7     9
-1.9180240000e-04     2     2     8     1
-8.6002457100e-02     2     2     8     3
 2.9250337800e-02     2     2     8     4
 1.2064600000e-05     2     2     8     5
-8.0515200000e-05     2     2     8     6
-5.4430000000e-07     2     2     8     7
 1.7948211950e-01     2     2     8     8
 5.2675000000e-06     2     2     8     9
-1.5614708300e-02     2     2     9     1
 7.9501400000e-05     2     2     9     3
 3.0686700000e-05     2     2     9     4
-7.4970392200e-02     2     2     9     5
-2.7137181000e-03     2     2     9     6
-9.8400000000e-06     2     2     9     7
 5.2675000000e-06     2     2     9     8
 1.8052954480e-01     2     2     9     9
-1.3869000000e-06     2     3     1     1
-4.0235000000e-06     2     3     1     2
-2.9750000000e-07     2     3     1     4
-7.3790000000e-07     2     3     1     5
-1.4221160000e-04     2     3     1     6
 1.3806420500e-02     2     3     1     7
 4.0583567400e-02     2     3     1     8
-3.5202100000e-05     2     3     1     9