&FCI NORB=  9,NELEC=  2,MS2=0,
 ORBSYM=1,1,1,1,1,1,1,1,1
 ISYM=1,
&END
 2.0250877550e-01     1     1     2     2
-2.3255233000e-03     1     1     2     3
-1.5148100000e-05     1     1     2     4
 8.0478000000e-06     1     1     2     5
-6.1394722900e-02     1     1     2     6
-5.8959900000e-04     1     1     2     7
-1.1127330000e-04     1     1     2     8
-2.5108562200e-02     1     1     2     9
-2.3255233000e-03     1     1     3     2
 2.8903617890e-01     1     1     3     3
-8.2950000000e-07     1     1     3     4
 1.2549000000e-06     1     1     3     5
-2.8859734000e-03     1     1     3     6
 1.5738389000e-03     1     1     3     7
 2.8052050000e-04     1     1     3     8
 6.3529636200e-02     1     1     3     9
-1.5148100000e-05     1     1     4     2
-8.2950000000e-07     1     1     4     3
 2.9280424660e-01     1     1     4     4
 2.0300000000e-08     1     1     4     5
-7.5355000000e-06     1     1     4     6
-1.7205732800e-02     1     1     4     7
-6.0311199200e-02     1     1     4     8
 7.0998260000e-04     1     1     4     9
 8.0478000000e-06     1     1     5     2
 1.2549000000e-06     1     1     5     3
 2.0300000000e-08     1     1     5     4
 2.9277872200e-01     1     1     5     5
 6.2429000000e-06     1     1     5     6
 6.0300297600e-02     1     1     5     7
-1.7220052200e-02     1     1     5     8
-1.4546650000e-03     1     1     5     9
-6.1394722900e-02     1     1     6     2
-2.8859734000e-03     1     1     6     3
-7.5355000000e-06     1     1     6     4
 6.2429000000e-06     1     1     6     5
 3.0522552980e-01     1     1     6     6
-2.6915250000e-04     1     1     6     7
-5.0659500000e-05     1     1     6     8
-1.1609764000e-02     1     1     6     9
-5.8959900000e-04     1     1     7     2
 1.5738389000e-03     1     1     7     3
-1.7205732800e-02     1     1     7     4
 6.0300297600e-02     1     1     7     5
-2.6915250000e-04     1     1     7     6
 3.0882676230e-01     1     1     7     7
-7.5549000000e-06     1     1     7     8
 3.2408500000e-05     1     1     7     9
-1.1127330000e-04     1     1     8     2
 2.8052050000e-04     1     1     8     3
-6.0311199200e-02     1     1     8     4
-1.7220052200e-02     1     1     8     5
-5.0659500000e-05     1     1     8     6
-7.5549000000e-06     1     1     8     7
 3.0881341550e-01     1     1     8     8
 6.3576000000e-06     1     1     8     9
-2.5108562200e-02     1     1     9     2
 6.3529636200e-02     1     1     9     3
 7.0998260000e-04     1     1     9     4
-1.4546650000e-03     1     1     9     5
-1.1609764000e-02     1     1     9     6
 3.2408500000e-05     1     1     9     7
 6.3576000000e-06     1     1     9     8
 3.1419794540e-01     1     1     9     9
-2.0250877550e-01     1     2     2     1
-2.7973973300e-02     1     2     2     3
-2.9208000000e-06     1     2     2     4
 4.2626400000e-05     1     2     2     5
 4.2560230600e-02     1     2     2     6
 1.5005080000e-04     1     2     2     7
 2.6578100000e-05     1     2     2     8
 6.5223687000e-03     1     2     2     9
 2.3255233000e-03     1     2     3     1
-8.4478332700e-02     1     2     3     3
-2.9134000000e-06     1     2     3     4
 5.3096000000e-06     1     2     3     5
-6.5183566000e-03     1     2     3     6
-1.2585609000e-03     1     2     3     7
-2.2383300000e-04     1     2     3     8
-5.0375649000e-02     1     2     3     9
 1.5148100000e-05     1     2     4     1
-1.6909000000e-06     1     2     4     3
-8.3314814300e-02     1     2     4     4
-6.0000000000e-09     1     2     4     5
 4.7656000000e-06     1     2     4     6
 1.4122725900e-02     1     2     4     7
 4.9505539800e-02     1     2     4     8
-5.7609640000e-04     1     2     4     9
-8.0478000000e-06     1     2     5     1
 5.1973000000e-06     1     2     5     3
-1.0800000000e-08     1     2     5     4
-8.3300425300e-02     1     2     5     5
 8.6551000000e-06     1     2     5     6
-4.9495412500e-02     1     2     5     7
 1.4133918000e-02     1     2     5     8
 1.1831589000e-03     1     2     5     9
 6.1394722900e-02     1     2     6     1
-1.4696275000e-03     1     2     6     3
 6.1573000000e-06     1     2     6     4
 4.7400000000e-07     1     2     6     5
-7.3859355700e-02     1     2     6     6
 4.0110820000e-04     1     2     6     7
 7.4498200000e-05     1     2     6     8
 1.7696310000e-02     1     2     6     9
 5.8959900000e-04     1     2     7     1
-7.2727750000e-04     1     2     7     3
 8.4412698000e-03     1     2     7     4
-2.9588950900e-02     1     2     7     5
 1.9941760000e-04     1     2     7     6
-7.8681360300e-02     1     2     7     7
 5.9301000000e-06     1     2     7     8
-1.5130000000e-07     1     2     7     9
 1.1127330000e-04     1     2     8     1
-1.2872710000e-04     1     2     8     3
 2.9593473200e-02     1     2     8     4
 8.4484126000e-03     1     2     8     5
 3.8185000000e-05     1     2     8     6
 5.2711000000e-06     1     2     8     7
-7.8671940500e-02     1     2     8     8
 6.6400000000e-07     1     2     8     9
 2.5108562200e-02     1     2     9     1
-2.9055685300e-02     1     2     9     3
-3.4411690000e-04     1     2     9     4
 7.0625950000e-04     1     2     9     5
 8.9449411000e-03     1     2     9     6
-2.6000000000e-08     1     2     9     7
 1.1182000000e-06     1     2     9     8
-8.1903326700e-02     1     2     9     9
 2.3255233000e-03     1     3     2     1
 2.7973973300e-02     1     3     2     2
-1.2225000000e-06     1     3     2     4
 1.1230000000e-07     1     3     2     5
-5.0487291000e-03     1     3     2     6
-5.3128340000e-04     1     3     2     7
-9.5105900000e-05     1     3     2     8
-2.1319963700e-02     1     3     2     9
-2.8903617890e-01     1     3     3     1
 8.4478332700e-02     1     3     3     2
-2.2642300000e-05     1     3     3     4
 6.3458400000e-05     1     3     3     5
-2.9752622400e-02     1     3     3     6
 2.5490280000e-04     1     3     3     7
 5.0871200000e-05     1     3     3     8
 1.1557988200e-02     1     3     3     9
 8.2950000000e-07     1     3     4     1
 1.6909000000e-06     1     3     4     2
 3.8924276000e-02     1     3     4     4
-1.3800000000e-08     1     3     4     5
-1.8910000000e-06     1     3     4     6
-6.8357110000e-04     1     3     4     7
-2.3964196000e-03     1     3     4     8
 3.9025400000e-05     1     3     4     9
-1.2549000000e-06     1     3     5     1
-5.1973000000e-06     1     3     5     2
-1.8900000000e-08     1     3     5     4
 3.8921871700e-02     1     3     5     5
 2.1407000000e-06     1     3     5     6
 2.4002176000e-03     1     3     5     7
-6.8600650000e-04     1     3     5     8
-7.3613100000e-05     1     3     5     9
 2.8859734000e-03     1     3     6     1
 1.4696275000e-03     1     3     6     2
-1.1169000000e-06     1     3     6     4
 1.2960000000e-07     1     3     6     5
 3.7753738100e-02     1     3     6     6
 3.7961350000e-04     1     3     6     7
 6.6248300000e-05     1     3     6     8
 1.5690366300e-02     1     3     6     9
-1.5738389000e-03     1     3     7     1
 7.2727750000e-04     1     3     7     2
-8.3335360000e-04     1     3     7     4
 2.9200289000e-03     1     3     7     5
-2.5052430000e-04     1     3     7     6
 4.0808732300e-02     1     3     7     7
-4.8470000000e-07     1     3     7     8
-3.2578600000e-05     1     3     7     9
-2.8052050000e-04     1     3     8     1
 1.2872710000e-04     1     3     8     2
-2.9200231000e-03     1     3     8     4
-8.3403180000e-04     1     3     8     5
-4.4845700000e-05     1     3     8     6
-4.6150000000e-07     1     3     8     7
 4.0809770200e-02     1     3     8     8
-5.9584000000e-06     1     3     8     9
-6.3529636200e-02     1     3     9     1
 2.9055685300e-02     1     3     9     2
 3.1369800000e-05     1     3     9     4
-6.4302300000e-05     1     3     9     5
-9.6632219000e-03     1     3     9     6
-3.1088200000e-05     1     3     9     7
-3.8603000000e-06     1     3     9     8
 3.9806414900e-02     1     3     9     9
 1.5148100000e-05     1     4     2     1
 2.9208000000e-06     1     4     2     2
 1.2225000000e-06     1     4     2     3
 4.8000000000e-09     1     4     2     5
-1.3917000000e-06     1     4     2     6
 5.6814561000e-03     1     4     2     7
 1.9912066600e-02     1     4     2     8
-2.3197950000e-04     1     4     2     9
 8.2950000000e-07     1     4     3     1
 2.9134000000e-06     1     4     3     2
 2.2642300000e-05     1     4     3     3
 5.1000000000e-09     1     4     3     5
-7.7410000000e-07     1     4     3     6
 1.4978250000e-04     1     4     3     7
 5.2360350000e-04     1     4     3     8
 7.6556000000e-06     1     4     3     9
-2.9280424660e-01     1     4     4     1
 8.3314814300e-02     1     4     4     2
-3.8924276000e-02     1     4     4     3
 6.4002400000e-05     1     4     4     5
-2.9520371200e-02     1     4     4     6
 2.0104720000e-04     1     4     4     7
 3.5716400000e-05     1     4     4     8
 8.6308286000e-03     1     4     4     9
-2.0300000000e-08     1     4     5     1
 1.0800000000e-08     1     4     5     2
 1.8900000000e-08     1     4     5     3
 2.2876900000e-05     1     4     5     5
-4.0000000000e-10     1     4     5     6
 3.7111000000e-06     1     4     5     7
-1.3131000000e-06     1     4     5     8
-7.9000000000e-07     1     4     5     9
 7.5355000000e-06     1     4     6     1
-6.1573000000e-06     1     4     6     2
 1.1169000000e-06     1     4     6     3
 6.6000000000e-09     1     4     6     5
 2.3198300000e-05     1     4     6     6
-4.5506783000e-03     1     4     6     7
-1.5949544600e-02     1     4     6     8
 1.9271510000e-04     1     4     6     9
 1.7205732800e-02     1     4     7     1
-8.4412698000e-03     1     4     7     2
 8.3335360000e-04     1     4     7     3
 1.1701000000e-06     1     4     7     5
 2.8581474000e-03     1     4     7     6
 2.7298700000e-05     1     4     7     7
-7.9834000000e-06     1     4     7     8
 2.3896000000e-04     1     4     7     9
 6.0311199200e-02     1     4     8     1
-2.9593473200e-02     1     4     8     2
 2.9200231000e-03     1     4     8     3
-5.9121000000e-06     1     4     8     5
 1.0020869300e-02     1     4     8     6
 2.0321000000e-05     1     4     8     7
 2.2952200000e-05     1     4     8     8
 8.3699310000e-04     1     4     8     9
-7.0998260000e-04     1     4     9     1
 3.4411690000e-04     1     4     9     2
-3.1369800000e-05     1     4     9     3
-1.5000000000e-09     1     4     9     5
-1.1264460000e-04     1     4     9     6
-1.1081580000e-04     1     4     9     7
-3.8860620000e-04     1     4     9     8
 1.2625200000e-05     1     4     9     9
-8.0478000000e-06     1     5     2     1
-4.2626400000e-05     1     5     2     2
-1.1230000000e-07     1     5     2     3
-4.8000000000e-09     1     5     2     4
 8.1811000000e-06     1     5     2     6
-1.9906461600e-02     1     5     2     7
 5.6855054000e-03     1     5     2     8
 4.7689940000e-04     1     5     2     9
-1.2549000000e-06     1     5     3     1
-5.3096000000e-06     1     5     3     2
-6.3458400000e-05     1     5     3     3
-5.1000000000e-09     1     5     3     4
 2.0111000000e-06     1     5     3     6
-5.1981130000e-04     1     5     3     7
 1.4802530000e-04     1     5     3     8
-9.3108000000e-06     1     5     3     9
-2.0300000000e-08     1     5     4     1
 6.0000000000e-09     1     5     4     2
 1.3800000000e-08     1     5     4     3
-6.4002400000e-05     1     5     4     4
-7.0000000000e-09     1     5     4     6
 2.5410000000e-06     1     5     4     7
 4.5990000000e-06     1     5     4     8
-7.8850000000e-07     1     5     4     9
-2.9277872200e-01     1     5     5     1
 8.3300425300e-02     1     5     5     2
-3.8921871700e-02     1     5     5     3
-2.2876900000e-05     1     5     5     4
-2.9513762900e-02     1     5     5     6
 2.0749890000e-04     1     5     5     7
 4.3511000000e-05     1     5     5     8
 8.6332207000e-03     1     5     5     9
-6.2429000000e-06     1     5     6     1
-4.7400000000e-07     1     5     6     2
-1.2960000000e-07     1     5     6     3
-6.6000000000e-09     1     5     6     4
-6.2304000000e-05     1     5     6     6
 1.5943928400e-02     1     5     6     7
-4.5546604000e-03     1     5     6     8
-3.9517660000e-04     1     5     6     9
-6.0300297600e-02     1     5     7     1
 2.9588950900e-02     1     5     7     2
-2.9200289000e-03     1     5     7     3
-1.1701000000e-06     1     5     7     4
-1.0021882900e-02     1     5     7     6
-8.8114300000e-05     1     5     7     7
-4.0104000000e-06     1     5     7     8
-8.3740000000e-04     1     5     7     9
 1.7220052200e-02     1     5     8     1
-8.4484126000e-03     1     5     8     2
 8.3403180000e-04     1     5     8     3
 5.9121000000e-06     1     5     8     4
 2.8606734000e-03     1     5     8     6
 7.4240000000e-06     1     5     8     7
-6.5765700000e-05     1     5     8     8
 2.3930480000e-04     1     5     8     9
 1.4546650000e-03     1     5     9     1
-7.0625950000e-04     1     5     9     2
 6.4302300000e-05     1     5     9     3
 1.5000000000e-09     1     5     9     4
 2.2995750000e-04     1     5     9     6
 3.8894780000e-04     1     5     9     7
-1.1077840000e-04     1     5     9     8
-4.8069800000e-05     1     5     9     9
 6.1394722900e-02     1     6     2     1
-4.2560230600e-02     1     6     2     2
 5.0487291000e-03     1     6     2     3
 1.3917000000e-06     1     6     2     4
-8.1811000000e-06     1     6     2     5
 2.0169060000e-04     1     6     2     7
 3.6313200000e-05     1     6     2     8
 8.7513689000e-03     1     6     2     9
 2.8859734000e-03     1     6     3     1
 6.5183566000e-03     1     6     3     2
 2.9752622400e-02     1     6     3     3
 7.7410000000e-07     1     6     3     4
-2.0111000000e-06     1     6     3     5
 6.3013780000e-04     1     6     3     7
 1.1109400000e-04     1     6     3     8
 2.5353588200e-02     1     6     3     9
 7.5355000000e-06     1     6     4     1
-4.7656000000e-06     1     6     4     2
 1.8910000000e-06     1     6     4     3
 2.9520371200e-02     1     6     4     4
 7.0000000000e-09     1     6     4     5
-7.4088257000e-03     1     6     4     7
-2.5970413900e-02     1     6     4     8
 3.0535970000e-04     1     6     4     9
-6.2429000000e-06     1     6     5     1
-8.6551000000e-06     1     6     5     2
-2.1407000000e-06     1     6     5     3
 4.0000000000e-10     1     6     5     4
 2.9513762900e-02     1     6     5     5
 2.5965811300e-02     1     6     5     7
-7.4153338000e-03     1     6     5     8
-6.2513410000e-04     1     6     5     9
-3.0522552980e-01     1     6     6     1
 7.3859355700e-02     1     6     6     2
-3.7753738100e-02     1     6     6     3
-2.3198300000e-05     1     6     6     4
 6.2304000000e-05     1     6     6     5
-3.0671000000e-06     1     6     6     7
 6.5909000000e-06     1     6     6     8
-6.7367230000e-04     1     6     6     9
 2.6915250000e-04     1     6     7     1
-1.9941760000e-04     1     6     7     2
 2.5052430000e-04     1     6     7     3
-2.8581474000e-03     1     6     7     4
 1.0021882900e-02     1     6     7     5
 1.6549335200e-02     1     6     7     7
-2.5696000000e-06     1     6     7     8
 5.2624300000e-05     1     6     7     9
 5.0659500000e-05     1     6     8     1
-3.8185000000e-05     1     6     8     2
 4.4845700000e-05     1     6     8     3
-1.0020869300e-02     1     6     8     4
-2.8606734000e-03     1     6     8     5
-1.6598000000e-06     1     6     8     7
 1.6543613200e-02     1     6     8     8
 1.0327700000e-05     1     6     8     9
 1.1609764000e-02     1     6     9     1
-8.9449411000e-03     1     6     9     2
 9.6632219000e-03     1     6     9     3
 1.1264460000e-04     1     6     9     4
-2.2995750000e-04     1     6     9     5
 5.4057100000e-05     1     6     9     7
 1.0045100000e-05     1     6     9     8
 1.9877385600e-02     1     6     9     9
 5.8959900000e-04     1     7     2     1
-1.5005080000e-04     1     7     2     2
 5.3128340000e-04     1     7     2     3
-5.6814561000e-03     1     7     2     4
 1.9906461600e-02     1     7     2     5
-2.0169060000e-04     1     7     2     6
 6.5900000000e-07     1     7     2     8
-1.2530000000e-07     1     7     2     9
-1.5738389000e-03     1     7     3     1
 1.2585609000e-03     1     7     3     2
-2.5490280000e-04     1     7     3     3
-1.4978250000e-04     1     7     3     4
 5.1981130000e-04     1     7     3     5
-6.3013780000e-04     1     7     3     6
-2.3200000000e-08     1     7     3     8
-1.4904000000e-06     1     7     3     9
 1.7205732800e-02     1     7     4     1
-1.4122725900e-02     1     7     4     2
 6.8357110000e-04     1     7     4     3
-2.0104720000e-04     1     7     4     4
-2.5410000000e-06     1     7     4     5
 7.4088257000e-03     1     7     4     6
-2.8304400000e-05     1     7     4     8
 3.4977580000e-04     1     7     4     9
-6.0300297600e-02     1     7     5     1
 4.9495412500e-02     1     7     5     2
-2.4002176000e-03     1     7     5     3
-3.7111000000e-06     1     7     5     4
-2.0749890000e-04     1     7     5     5
-2.5965811300e-02     1     7     5     6
-1.1434400000e-05     1     7     5     8
-1.2263478000e-03     1     7     5     9
 2.6915250000e-04     1     7     6     1
-4.0110820000e-04     1     7     6     2
-3.7961350000e-04     1     7     6     3
 4.5506783000e-03     1     7     6     4
-1.5943928400e-02     1     7     6     5
 3.0671000000e-06     1     7     6     6
-9.0980000000e-07     1     7     6     8
-1.4328000000e-06     1     7     6     9
-3.0882676230e-01     1     7     7     1
 7.8681360300e-02     1     7     7     2
-4.0808732300e-02     1     7     7     3
-2.7298700000e-05     1     7     7     4
 8.8114300000e-05     1     7     7     5
-1.6549335200e-02     1     7     7     6
 3.2220200000e-05     1     7     7     8
 6.7058273000e-03     1     7     7     9
 7.5549000000e-06     1     7     8     1
-5.2711000000e-06     1     7     8     2
 4.6150000000e-07     1     7     8     3
-2.0321000000e-05     1     7     8     4
-7.4240000000e-06     1     7     8     5
 1.6598000000e-06     1     7     8     6
-1.5634550000e-04     1     7     8     8
 4.8120000000e-07     1     7     8     9
-3.2408500000e-05     1     7     9     1
 2.6000000000e-08     1     7     9     2
 3.1088200000e-05     1     7     9     3
 1.1081580000e-04     1     7     9     4
-3.8894780000e-04     1     7     9     5
-5.4057100000e-05     1     7     9     6
 1.8720000000e-07     1     7     9     8
-1.5014070000e-04     1     7     9     9
 1.1127330000e-04     1     8     2     1
-2.6578100000e-05     1     8     2     2
 9.5105900000e-05     1     8     2     3
-1.9912066600e-02     1     8     2     4
-5.6855054000e-03     1     8     2     5
-3.6313200000e-05     1     8     2     6
-6.5900000000e-07     1     8     2     7
-4.5420000000e-07     1     8     2     9
-2.8052050000e-04     1     8     3     1
 2.2383300000e-04     1     8     3     2
-5.0871200000e-05     1     8     3     3
-5.2360350000e-04     1     8     3     4
-1.4802530000e-04     1     8     3     5
-1.1109400000e-04     1     8     3     6
 2.3200000000e-08     1     8     3     7
-2.0981000000e-06     1     8     3     9
 6.0311199200e-02     1     8     4     1
-4.9505539800e-02     1     8     4     2
 2.3964196000e-03     1     8     4     3
-3.5716400000e-05     1     8     4     4
-4.5990000000e-06     1     8     4     5
 2.5970413900e-02     1     8     4     6
 2.8304400000e-05     1     8     4     7
 1.2255993000e-03     1     8     4     9
 1.7220052200e-02     1     8     5     1
-1.4133918000e-02     1     8     5     2
 6.8600650000e-04     1     8     5     3
 1.3131000000e-06     1     8     5     4
-4.3511000000e-05     1     8     5     5
 7.4153338000e-03     1     8     5     6
 1.1434400000e-05     1     8     5     7
 3.5008320000e-04     1     8     5     9
 5.0659500000e-05     1     8     6     1
-7.4498200000e-05     1     8     6     2
-6.6248300000e-05     1     8     6     3
 1.5949544600e-02     1     8     6     4
 4.5546604000e-03     1     8     6     5
-6.5909000000e-06     1     8     6     6
 9.0980000000e-07     1     8     6     7
 2.8260000000e-07     1     8     6     9
 7.5549000000e-06     1     8     7     1
-5.9301000000e-06     1     8     7     2
 4.8470000000e-07     1     8     7     3
 7.9834000000e-06     1     8     7     4
 4.0104000000e-06     1     8     7     5
 2.5696000000e-06     1     8     7     6
-3.2220200000e-05     1     8     7     7
 2.9400000000e-07     1     8     7     9
-3.0881341550e-01     1     8     8     1
 7.8671940500e-02     1     8     8     2
-4.0809770200e-02     1     8     8     3
-2.2952200000e-05     1     8     8     4
 6.5765700000e-05     1     8     8     5
-1.6543613200e-02     1     8     8     6
 1.5634550000e-04     1     8     8     7
 6.7060522000e-03     1     8     8     9
-6.3576000000e-06     1     8     9     1
-1.1182000000e-06     1     8     9     2
 3.8603000000e-06     1     8     9     3
 3.8860620000e-04     1     8     9     4
 1.1077840000e-04     1     8     9     5
-1.0045100000e-05     1     8     9     6
-1.8720000000e-07     1     8     9     7
-3.1108800000e-05     1     8     9     9
 2.5108562200e-02     1     9     2     1
-6.5223687000e-03     1     9     2     2
 2.1319963700e-02     1     9     2     3
 2.3197950000e-04     1     9     2     4
-4.7689940000e-04     1     9     2     5
-8.7513689000e-03     1     9     2     6
 1.2530000000e-07     1     9     2     7
 4.5420000000e-07     1     9     2     8
-6.3529636200e-02     1     9     3     1
 5.0375649000e-02     1     9     3     2
-1.1557988200e-02     1     9     3     3
-7.6556000000e-06     1     9     3     4
 9.3108000000e-06     1     9     3     5
-2.5353588200e-02     1     9     3     6
 1.4904000000e-06     1     9     3     7
 2.0981000000e-06     1     9     3     8
-7.0998260000e-04     1     9     4     1
 5.7609640000e-04     1     9     4     2
-3.9025400000e-05     1     9     4     3
-8.6308286000e-03     1     9     4     4
 7.8850000000e-07     1     9     4     5
-3.0535970000e-04     1     9     4     6
-3.4977580000e-04     1     9     4     7
-1.2255993000e-03     1     9     4     8
 1.4546650000e-03     1     9     5     1
-1.1831589000e-03     1     9     5     2
 7.3613100000e-05     1     9     5     3
 7.9000000000e-07     1     9     5     4
-8.6332207000e-03     1     9     5     5
 6.2513410000e-04     1     9     5     6
 1.2263478000e-03     1     9     5     7
-3.5008320000e-04     1     9     5     8
 1.1609764000e-02     1     9     6     1
-1.7696310000e-02     1     9     6     2
-1.5690366300e-02     1     9     6     3
-1.9271510000e-04     1     9     6     4
 3.9517660000e-04     1     9     6     5
 6.7367230000e-04     1     9     6     6
 1.4328000000e-06     1     9     6     7
-2.8260000000e-07     1     9     6     8
-3.2408500000e-05     1     9     7     1
 1.5130000000e-07     1     9     7     2
 3.2578600000e-05     1     9     7     3
-2.3896000000e-04     1     9     7     4
 8.3740000000e-04     1     9     7     5
-5.2624300000e-05     1     9     7     6
-6.7058273000e-03     1     9     7     7
-2.9400000000e-07     1     9     7     8
-6.3576000000e-06     1     9     8     1
-6.6400000000e-07     1     9     8     2
 5.9584000000e-06     1     9     8     3
-8.3699310000e-04     1     9     8     4
-2.3930480000e-04     1     9     8     5
-1.0327700000e-05     1     9     8     6
-4.8120000000e-07     1     9     8     7
-6.7060522000e-03     1     9     8     8
-3.1419794540e-01     1     9     9     1
 8.1903326700e-02     1     9     9     2
-3.9806414900e-02     1     9     9     3
-1.2625200000e-05     1     9     9     4
 4.8069800000e-05     1     9     9     5
-1.9877385600e-02     1     9     9     6
 1.5014070000e-04     1     9     9     7
 3.1108800000e-05     1     9     9     8
-2.0250877550e-01     2     1     1     2
 2.3255233000e-03     2     1     1     3
 1.5148100000e-05     2     1     1     4
-8.0478000000e-06     2     1     1     5
 6.1394722900e-02     2     1     1     6
 5.8959900000e-04     2     1     1     7
 1.1127330000e-04     2     1     1     8
 2.5108562200e-02     2     1     1     9
-2.7973973300e-02     2     1     3     2
-8.4478332700e-02     2     1     3     3
-1.6909000000e-06     2     1     3     4
 5.1973000000e-06     2     1     3     5
-1.4696275000e-03     2     1     3     6
-7.2727750000e-04     2     1     3     7
-1.2872710000e-04     2     1     3     8
-2.9055685300e-02     2     1     3     9
-2.9208000000e-06     2     1     4     2
-2.9134000000e-06     2     1     4     3
-8.3314814300e-02     2     1     4     4
-1.0800000000e-08     2     1     4     5
 6.1573000000e-06     2     1     4     6
 8.4412698000e-03     2     1     4     7
 2.9593473200e-02     2     1     4     8
-3.4411690000e-04     2     1     4     9
 4.2626400000e-05     2     1     5     2
 5.3096000000e-06     2     1     5     3
-6.0000000000e-09     2     1     5     4
-8.3300425300e-02     2     1     5     5
 4.7400000000e-07     2     1     5     6
-2.9588950900e-02     2     1     5     7
 8.4484126000e-03     2     1     5     8
 7.0625950000e-04     2     1     5     9
 4.2560230600e-02     2     1     6     2
-6.5183566000e-03     2     1     6     3
 4.7656000000e-06     2     1     6     4
 8.6551000000e-06     2     1     6     5
-7.3859355700e-02     2     1     6     6
 1.9941760000e-04     2     1     6     7
 3.8185000000e-05     2     1     6     8
 8.9449411000e-03     2     1     6     9
 1.5005080000e-04     2     1     7     2
-1.2585609000e-03     2     1     7     3
 1.4122725900e-02     2     1     7     4
-4.9495412500e-02     2     1     7     5
 4.0110820000e-04     2     1     7     6
-7.8681360300e-02     2     1     7     7
 5.2711000000e-06     2     1     7     8
-2.6000000000e-08     2     1     7     9
 2.6578100000e-05     2     1     8     2
-2.2383300000e-04     2     1     8     3
 4.9505539800e-02     2     1     8     4
 1.4133918000e-02     2     1     8     5
 7.4498200000e-05     2     1     8     6
 5.9301000000e-06     2     1     8     7
-7.8671940500e-02     2     1     8     8
 1.1182000000e-06     2     1     8     9
 6.5223687000e-03     2     1     9     2
-5.0375649000e-02     2     1     9     3
-5.7609640000e-04     2     1     9     4
 1.1831589000e-03     2     1     9     5
 1.7696310000e-02     2     1     9     6
-1.5130000000e-07     2     1     9     7
 6.6400000000e-07     2     1     9     8
-8.1903326700e-02     2     1     9     9
 2.0250877550e-01     2     2     1     1
 2.7973973300e-02     2     2     1     3
 2.9208000000e-06     2     2     1     4
-4.2626400000e-05     2     2     1     5
-4.2560230600e-02     2     2     1     6
-1.5005080000e-04     2     2     1     7
-2.6578100000e-05     2     2     1     8
-6.5223687000e-03     2     2     1     9
 2.7973973300e-02     2     2     3     1
 2.5900132530e-01     2     2     3     3
-4.3840000000e-06     2     2     3     4
 3.8969000000e-06     2     2     3     5
-1.6264607200e-02     2     2     3     6
 9.4290960000e-04     2     2     3     7
 1.6810120000e-04     2     2     3     8
 3.8279645900e-02     2     2     3     9
 2.9208000000e-06     2     2     4     1
-4.3840000000e-06     2     2     4     3
 2.6272665880e-01     2     2     4     4
 1.7300000000e-08     2     2     4     5
-2.0933000000e-05     2     2     4     6
-1.0343675300e-02     2     2     4     7
-3.6257990800e-02     2     2     4     8
 4.3063300000e-04     2     2     4     9
-4.2626400000e-05     2     2     5     1
 3.8969000000e-06     2     2     5     3
 1.7300000000e-08     2     2     5     4
 2.6271008700e-01     2     2     5     5
 2.9506700000e-05     2     2     5     6
 3.6257261400e-02     2     2     5     7
-1.0354201400e-02     2     2     5     8
-8.8088250000e-04     2     2     5     9
-4.2560230600e-02     2     2     6     1
-1.6264607200e-02     2     2     6     3
-2.0933000000e-05     2     2     6     4
 2.9506700000e-05     2     2     6     5
 2.2472261570e-01     2     2     6     6
-1.0805290000e-04     2     2     6     7
-1.9033100000e-05     2     2     6     8
-4.5796333000e-03     2     2     6     9
-1.5005080000e-04     2     2     7     1
 9.4290960000e-04     2     2     7     3
-1.0343675300e-02     2     2     7     4
 3.6257261400e-02     2     2     7     5
-1.0805290000e-04     2     2     7     6
 2.5051439160e-01     2     2     7     7
-3.9620000000e-06     2     2     7     8
 4.7829900000e-05     2     2     7     9
-2.6578100000e-05     2     2     8     1
 1.6810120000e-04     2     2     8     3
-3.6257990800e-02     2     2     8     4
-1.0354201400e-02     2     2     8     5
-1.9033100000e-05     2     2     8     6
-3.9620000000e-06     2     2     8     7
 2.5050734860e-01     2     2     8     8
 1.0018800000e-05     2     2     8     9
-6.5223687000e-03     2     2     9     1
 3.8279645900e-02     2     2     9     3
 4.3063300000e-04     2     2     9     4
-8.8088250000e-04     2     2     9     5
-4.5796333000e-03     2     2     9     6
 4.7829900000e-05     2     2     9     7
 1.0018800000e-05     2     2     9     8
 2.5466904270e-01     2     2     9     9
-2.3255233000e-03     2     3     1     1
-2.7973973300e-02     2     3     1     2
 1.2225000000e-06     2     3     1     4
-1.1230000000e-07     2     3     1     5
 5.0487291000e-03     2     3     1     6
 5.3128340000e-04     2     3     1     7
 9.5105900000e-05     2     3     1     8
 2.1319963700e-02     2     3     1     9