&FCI NORB=  9,NELEC=  2,MS2=0,
 ORBSYM=1,1,1,1,1,1,1,1,1
 ISYM=1,
&END
 3.0963484170e-01     1     1     2     2
-2.2360800000e-04     1     1     2     3
-4.3312160000e-04     1     1     2     4
 1.2038869300e-02     1     1     2     5
 9.1058696900e-02     1     1     2     6
-7.8441900000e-05     1     1     2     7
 1.5146710000e-04     1     1     2     8
-1.0893696100e-02     1     1     2     9
-2.2360800000e-04     1     1     3     2
 3.3820036720e-01     1     1     3     3
 4.7317000000e-06     1     1     3     4
-1.2763260000e-04     1     1     3     5
 4.3384900000e-05     1     1     3     6
 6.5673802800e-02     1     1     3     7
 1.0621443700e-02     1     1     3     8
-1.1991377000e-03     1     1     3     9
-4.3312160000e-04     1     1     4     2
 4.7317000000e-06     1     1     4     3
 3.3821188930e-01     1     1     4     4
-2.4674740000e-04     1     1     4     5
-1.0051630000e-04     1     1     4     6
-1.0654112600e-02     1     1     4     7
 6.5627820300e-02     1     1     4     8
-2.3443611000e-03     1     1     4     9
 1.2038869300e-02     1     1     5     2
-1.2763260000e-04     1     1     5     3
-2.4674740000e-04     1     1     5     4
 3.4643258950e-01     1     1     5     5
-3.3421500000e-04     1     1     5     6
 8.1112250000e-04     1     1     5     7
 2.4954593000e-03     1     1     5     8
 6.5605729700e-02     1     1     5     9
 9.1058696900e-02     1     1     6     2
 4.3384900000e-05     1     1     6     3
-1.0051630000e-04     1     1     6     4
-3.3421500000e-04     1     1     6     5
 3.9314258850e-01     1     1     6     6
-9.6975000000e-06     1     1     6     7
 1.4369800000e-05     1     1     6     8
 1.8611184000e-03     1     1     6     9
-7.8441900000e-05     1     1     7     2
 6.5673802800e-02     1     1     7     3
-1.0654112600e-02     1     1     7     4
 8.1112250000e-04     1     1     7     5
-9.6975000000e-06     1     1     7     6
 3.9575548920e-01     1     1     7     7
-2.1006000000e-06     1     1     7     8
-2.5244700000e-05     1     1     7     9
 1.5146710000e-04     1     1     8     2
 1.0621443700e-02     1     1     8     3
 6.5627820300e-02     1     1     8     4
 2.4954593000e-03     1     1     8     5
 1.4369800000e-05     1     1     8     6
-2.1006000000e-06     1     1     8     7
 3.9576716190e-01     1     1     8     8
-6.6191600000e-05     1     1     8     9
-1.0893696100e-02     1     1     9     2
-1.1991377000e-03     1     1     9     3
-2.3443611000e-03     1     1     9     4
 6.5605729700e-02     1     1     9     5
 1.8611184000e-03     1     1     9     6
-2.5244700000e-05     1     1     9     7
-6.6191600000e-05     1     1     9     8
 4.2465014330e-01     1     1     9     9
-3.0963484170e-01     1     2     2     1
-7.1761860000e-04     1     2     2     3
-1.3892531000e-03     1     2     2     4
 3.8236362700e-02     1     2     2     5
 5.7156251200e-02     1     2     2     6
-6.2361800000e-05     1     2     2     7
 6.6061100000e-05     1     2     2     8
 1.1957008700e-02     1     2     2     9
 2.2360800000e-04     1     2     3     1
 8.6294605500e-02     1     2     3     3
 1.9644000000e-06     1     2     3     4
-4.7209200000e-05     1     2     3     5
 2.8494230000e-04     1     2     3     6
 5.3261419300e-02     1     2     3     7
 8.6138102000e-03     1     2     3     8
-9.5775860000e-04     1     2     3     9
 4.3312160000e-04     1     2     4     1
 1.9630000000e-06     1     2     4     3
 8.6298859100e-02     1     2     4     4
-9.1213900000e-05     1     2     4     5
 3.9779970000e-04     1     2     4     6
-8.6431525000e-03     1     2     4     7
 5.3228955300e-02     1     2     4     8
-1.8708768000e-03     1     2     4     9
-1.2038869300e-02     1     2     5     1
-5.1390100000e-05     1     2     5     3
-9.9296400000e-05     1     2     5     4
 8.9514834300e-02     1     2     5     5
-1.3179396900e-02     1     2     5     6
 6.7322460000e-04     1     2     5     7
 2.0190018000e-03     1     2     5     8
 5.2479325800e-02     1     2     5     9
-9.1058696900e-02     1     2     6     1
 6.7857800000e-05     1     2     6     3
 8.1738600000e-05     1     2     6     4
-2.9602132000e-03     1     2     6     5
 9.6225883400e-02     1     2     6     6
-1.3558400000e-05     1     2     6     7
 2.9775000000e-06     1     2     6     8
 8.8075427000e-03     1     2     6     9
 7.8441900000e-05     1     2     7     1
 1.7013938600e-02     1     2     7     3
-2.7592407000e-03     1     2     7     4
 2.1190610000e-04     1     2     7     5
-6.2610000000e-06     1     2     7     6
 9.5147005800e-02     1     2     7     7
-6.5000000000e-09     1     2     7     8
-2.0265300000e-05     1     2     7     9
-1.5146710000e-04     1     2     8     1
 2.7502918000e-03     1     2     8     3
 1.7000588800e-02     1     2     8     4
 6.4059890000e-04     1     2     8     5
 1.9652700000e-05     1     2     8     6
-1.3310000000e-06     1     2     8     7
 9.5153729000e-02     1     2     8     8
-2.6345600000e-05     1     2     8     9
 1.0893696100e-02     1     2     9     1
-2.9277040000e-04     1     2     9     3
-5.7195120000e-04     1     2     9     4
 1.6178973400e-02     1     2     9     5
-2.5222960000e-04     1     2     9     6
-7.9285000000e-06     1     2     9     7
-2.8289500000e-05     1     2     9     8
 1.1363401050e-01     1     2     9     9
 2.2360800000e-04     1     3     2     1
 7.1761860000e-04     1     3     2     2
 1.4000000000e-09     1     3     2     4
 4.1809000000e-06     1     3     2     5
 2.1708450000e-04     1     3     2     6
 3.6247480700e-02     1     3     2     7
 5.8635184000e-03     1     3     2     8
-6.6498820000e-04     1     3     2     9
-3.3820036720e-01     1     3     3     1
-8.6294605500e-02     1     3     3     2
-1.3769084000e-03     1     3     3     4
 3.8062887600e-02     1     3     3     5
-1.5496471300e-02     1     3     3     6
-2.5602480000e-04     1     3     3     7
-1.1389960000e-04     1     3     3     8
-7.0371564000e-03     1     3     3     9
-4.7317000000e-06     1     3     4     1
-1.9630000000e-06     1     3     4     2
 7.1132630000e-04     1     3     4     4
-1.6660000000e-07     1     3     4     5
-9.1857000000e-06     1     3     4     6
-2.5052630000e-04     1     3     4     7
-1.7927090000e-04     1     3     4     8
 3.4031000000e-06     1     3     4     9
 1.2763260000e-04     1     3     5     1
 5.1390100000e-05     1     3     5     2
-5.0000000000e-10     1     3     5     4
 7.2257640000e-04     1     3     5     5
 2.6051510000e-04     1     3     5     6
 7.3204202000e-03     1     3     5     7
 1.1781655000e-03     1     3     5     8
-1.6523110000e-04     1     3     5     9
-4.3384900000e-05     1     3     6     1
-6.7857800000e-05     1     3     6     2
-1.1300000000e-08     1     3     6     4
-3.8444000000e-06     1     3     6     5
 6.8700620000e-04     1     3     6     6
 4.5352234000e-03     1     3     6     7
 7.3454130000e-04     1     3     6     8
-3.3919640000e-04     1     3     6     9
-6.5673802800e-02     1     3     7     1
-1.7013938600e-02     1     3     7     2
-1.0323600000e-05     1     3     7     4
 1.1981340000e-04     1     3     7     5
-1.8007194200e-02     1     3     7     6
 7.8883790000e-04     1     3     7     7
-2.8237600000e-05     1     3     7     8
-7.3720372000e-03     1     3     7     9
-1.0621443700e-02     1     3     8     1
-2.7502918000e-03     1     3     8     2
 3.2711000000e-06     1     3     8     4
 1.9948600000e-05     1     3     8     5
-2.9117719000e-03     1     3     8     6
 1.3115900000e-05     1     3     8     7
 7.8669560000e-04     1     3     8     8
-1.1926308000e-03     1     3     8     9
 1.1991377000e-03     1     3     9     1
 2.9277040000e-04     1     3     9     2
-2.2000000000e-09     1     3     9     4
-2.4290000000e-06     1     3     9     5
 1.1920820000e-04     1     3     9     6
-4.2176285000e-03     1     3     9     7
-6.8097910000e-04     1     3     9     8
 8.0848160000e-04     1     3     9     9
 4.3312160000e-04     1     4     2     1
 1.3892531000e-03     1     4     2     2
-1.4000000000e-09     1     4     2     3
 8.0825000000e-06     1     4     2     5
 3.1606110000e-04     1     4     2     6
-5.8839118000e-03     1     4     2     7
 3.6228366500e-02     1     4     2     8
-1.2989256000e-03     1     4     2     9
-4.7317000000e-06     1     4     3     1
-1.9644000000e-06     1     4     3     2
 1.3769084000e-03     1     4     3     3
-1.6610000000e-07     1     4     3     5
-9.1744000000e-06     1     4     3     6
-2.4020270000e-04     1     4     3     7
-1.8254200000e-04     1     4     3     8
 3.4053000000e-06     1     4     3     9
-3.3821188930e-01     1     4     4     1
-8.6298859100e-02     1     4     4     2
-7.1132630000e-04     1     4     4     3
 3.8062753100e-02     1     4     4     5
-1.5510365200e-02     1     4     4     6
 8.2189700000e-05     1     4     4     7
-5.6811190000e-04     1     4     4     8
-7.0326046000e-03     1     4     4     9
 2.4674740000e-04     1     4     5     1
 9.9296400000e-05     1     4     5     2
 5.0000000000e-10     1     4     5     3
 1.3985566000e-03     1     4     5     5
 4.7365120000e-04     1     4     5     6
-1.1961675000e-03     1     4     5     7
 7.3099464000e-03     1     4     5     8
-3.1797610000e-04     1     4     5     9
 1.0051630000e-04     1     4     6     1
-8.1738600000e-05     1     4     6     2
 1.1300000000e-08     1     4     6     3
-7.4945000000e-06     1     4     6     5
 1.3811507000e-03     1     4     6     6
-7.3675260000e-04     1     4     6     7
 4.5360067000e-03     1     4     6     8
-6.3445020000e-04     1     4     6     9
 1.0654112600e-02     1     4     7     1
 2.7592407000e-03     1     4     7     2
 1.0323600000e-05     1     4     7     3
-1.9531700000e-05     1     4     7     5
 2.9217952000e-03     1     4     7     6
 1.5218828000e-03     1     4     7     7
 1.0433300000e-05     1     4     7     8
 1.1976138000e-03     1     4     7     9
-6.5627820300e-02     1     4     8     1
-1.7000588800e-02     1     4     8     2
-3.2711000000e-06     1     4     8     3
 1.1962950000e-04     1     4     8     5
-1.7993737300e-02     1     4     8     6
 2.5429400000e-05     1     4     8     7
 1.4776511000e-03     1     4     8     8
-7.3685343000e-03     1     4     8     9
 2.3443611000e-03     1     4     9     1
 5.7195120000e-04     1     4     9     2
 2.2000000000e-09     1     4     9     3
-4.7582000000e-06     1     4     9     5
 2.4974760000e-04     1     4     9     6
 6.8416220000e-04     1     4     9     7
-4.2122862000e-03     1     4     9     8
 1.5672085000e-03     1     4     9     9
-1.2038869300e-02     1     5     2     1
-3.8236362700e-02     1     5     2     2
-4.1809000000e-06     1     5     2     3
-8.0825000000e-06     1     5     2     4
-1.0219183700e-02     1     5     2     6
 4.6131850000e-04     1     5     2     7
 1.3784029000e-03     1     5     2     8
 3.6300352400e-02     1     5     2     9
 1.2763260000e-04     1     5     3     1
 4.7209200000e-05     1     5     3     2
-3.8062887600e-02     1     5     3     3
 1.6610000000e-07     1     5     3     4
 2.6435950000e-04     1     5     3     6
 7.2006068000e-03     1     5     3     7
 1.1582169000e-03     1     5     3     8
-1.6280210000e-04     1     5     3     9
 2.4674740000e-04     1     5     4     1
 9.1213900000e-05     1     5     4     2
 1.6660000000e-07     1     5     4     3
-3.8062753100e-02     1     5     4     4
 4.8114570000e-04     1     5     4     6
-1.1766358000e-03     1     5     4     7
 7.1903169000e-03     1     5     4     8
-3.1321790000e-04     1     5     4     9
-3.4643258950e-01     1     5     5     1
-8.9514834300e-02     1     5     5     2
-7.2257640000e-04     1     5     5     3
-1.3985566000e-03     1     5     5     4
-2.9098987400e-02     1     5     5     6
 2.2425200000e-04     1     5     5     7
 5.6728990000e-04     1     5     5     8
 2.2124101000e-03     1     5     5     9
 3.3421500000e-04     1     5     6     1
 2.9602132000e-03     1     5     6     2
 3.8444000000e-06     1     5     6     3
 7.4945000000e-06     1     5     6     4
-3.7157442600e-02     1     5     6     6
 4.2175700000e-05     1     5     6     7
 1.5307640000e-04     1     5     6     8
 1.7650763700e-02     1     5     6     9
-8.1112250000e-04     1     5     7     1
-2.1190610000e-04     1     5     7     2
-1.1981340000e-04     1     5     7     3
 1.9531700000e-05     1     5     7     4
-2.2976620000e-04     1     5     7     6
-4.1908677400e-02     1     5     7     7
 8.7080000000e-07     1     5     7     8
-1.0285150000e-04     1     5     7     9
-2.4954593000e-03     1     5     8     1
-6.4059890000e-04     1     5     8     2
-1.9948600000e-05     1     5     8     3
-1.1962950000e-04     1     5     8     4
-6.9002030000e-04     1     5     8     6
 1.2288000000e-06     1     5     8     7
-4.1909511100e-02     1     5     8     8
-2.4252020000e-04     1     5     8     9
-6.5605729700e-02     1     5     9     1
-1.6178973400e-02     1     5     9     2
 2.4290000000e-06     1     5     9     3
 4.7582000000e-06     1     5     9     4
-7.0703149000e-03     1     5     9     6
-3.6310600000e-05     1     5     9     7
-1.4954550000e-04     1     5     9     8
-4.2382230200e-02     1     5     9     9
-9.1058696900e-02     1     6     2     1
-5.7156251200e-02     1     6     2     2
-2.1708450000e-04     1     6     2     3
-3.1606110000e-04     1     6     2     4
 1.0219183700e-02     1     6     2     5
-7.2974000000e-06     1     6     2     7
-1.6675200000e-05     1     6     2     8
 9.0597723000e-03     1     6     2     9
-4.3384900000e-05     1     6     3     1
-2.8494230000e-04     1     6     3     2
 1.5496471300e-02     1     6     3     3
 9.1744000000e-06     1     6     3     4
-2.6435950000e-04     1     6     3     5
 2.2542417600e-02     1     6     3     7
 3.6463132000e-03     1     6     3     8
-4.5840460000e-04     1     6     3     9
 1.0051630000e-04     1     6     4     1
-3.9779970000e-04     1     6     4     2
 9.1857000000e-06     1     6     4     3
 1.5510365200e-02     1     6     4     4
-4.8114570000e-04     1     6     4     5
-3.6585478000e-03     1     6     4     7
 2.2529744000e-02     1     6     4     8
-8.8419780000e-04     1     6     4     9
 3.3421500000e-04     1     6     5     1
 1.3179396900e-02     1     6     5     2
-2.6051510000e-04     1     6     5     3
-4.7365120000e-04     1     6     5     4
 2.9098987400e-02     1     6     5     5
 2.7194190000e-04     1     6     5     7
 8.4309670000e-04     1     6     5     8
 2.4721078600e-02     1     6     5     9
-3.9314258850e-01     1     6     6     1
-9.6225883400e-02     1     6     6     2
-6.8700620000e-04     1     6     6     3
-1.3811507000e-03     1     6     6     4
 3.7157442600e-02     1     6     6     5
 3.2477000000e-06     1     6     6     7
-2.3023900000e-05     1     6     6     8
-1.1635960000e-04     1     6     6     9
 9.6975000000e-06     1     6     7     1
 6.2610000000e-06     1     6     7     2
 1.8007194200e-02     1     6     7     3
-2.9217952000e-03     1     6     7     4
 2.2976620000e-04     1     6     7     5
 8.7115321000e-03     1     6     7     7
 4.2600000000e-08     1     6     7     8
-6.3122000000e-06     1     6     7     9
-1.4369800000e-05     1     6     8     1
-1.9652700000e-05     1     6     8     2
 2.9117719000e-03     1     6     8     3
 1.7993737300e-02     1     6     8     4
 6.9002030000e-04     1     6     8     5
-3.8400000000e-08     1     6     8     7
 8.7115693000e-03     1     6     8     8
-1.1773600000e-05     1     6     8     9
-1.8611184000e-03     1     6     9     1
 2.5222960000e-04     1     6     9     2
-1.1920820000e-04     1     6     9     3
-2.4974760000e-04     1     6     9     4
 7.0703149000e-03     1     6     9     5
-1.0474000000e-06     1     6     9     7
-5.5266000000e-06     1     6     9     8
 1.2045680700e-02     1     6     9     9
 7.8441900000e-05     1     7     2     1
 6.2361800000e-05     1     7     2     2
-3.6247480700e-02     1     7     2     3
 5.8839118000e-03     1     7     2     4
-4.6131850000e-04     1     7     2     5
 7.2974000000e-06     1     7     2     6
 1.3245000000e-06     1     7     2     8
-1.2336800000e-05     1     7     2     9
-6.5673802800e-02     1     7     3     1
-5.3261419300e-02     1     7     3     2
 2.5602480000e-04     1     7     3     3
 2.4020270000e-04     1     7     3     4
-7.2006068000e-03     1     7     3     5
-2.2542417600e-02     1     7     3     6
-4.1353500000e-05     1     7     3     8
-3.1544087000e-03     1     7     3     9
 1.0654112600e-02     1     7     4     1
 8.6431525000e-03     1     7     4     2
 2.5052630000e-04     1     7     4     3
-8.2189700000e-05     1     7     4     4
 1.1766358000e-03     1     7     4     5
 3.6585478000e-03     1     7     4     6
-1.4996100000e-05     1     7     4     8
 5.1345160000e-04     1     7     4     9
-8.1112250000e-04     1     7     5     1
-6.7322460000e-04     1     7     5     2
-7.3204202000e-03     1     7     5     3
 1.1961675000e-03     1     7     5     4
-2.2425200000e-04     1     7     5     5
-2.7194190000e-04     1     7     5     6
-3.5800000000e-07     1     7     5     8
-6.6540900000e-05     1     7     5     9
 9.6975000000e-06     1     7     6     1
 1.3558400000e-05     1     7     6     2
-4.5352234000e-03     1     7     6     3
 7.3675260000e-04     1     7     6     4
-4.2175700000e-05     1     7     6     5
-3.2477000000e-06     1     7     6     6
 8.1000000000e-08     1     7     6     8
-5.2648000000e-06     1     7     6     9
-3.9575548920e-01     1     7     7     1
-9.5147005800e-02     1     7     7     2
-7.8883790000e-04     1     7     7     3
-1.5218828000e-03     1     7     7     4
 4.1908677400e-02     1     7     7     5
-8.7115321000e-03     1     7     7     6
-3.1422200000e-05     1     7     7     8
-1.7961158000e-03     1     7     7     9
 2.1006000000e-06     1     7     8     1
 1.3310000000e-06     1     7     8     2
-1.3115900000e-05     1     7     8     3
-2.5429400000e-05     1     7     8     4
-1.2288000000e-06     1     7     8     5
 3.8400000000e-08     1     7     8     6
-3.2804000000e-06     1     7     8     8
-5.1200000000e-08     1     7     8     9
 2.5244700000e-05     1     7     9     1
 7.9285000000e-06     1     7     9     2
 4.2176285000e-03     1     7     9     3
-6.8416220000e-04     1     7     9     4
 3.6310600000e-05     1     7     9     5
 1.0474000000e-06     1     7     9     6
 1.1470000000e-07     1     7     9     8
-6.6718000000e-06     1     7     9     9
-1.5146710000e-04     1     8     2     1
-6.6061100000e-05     1     8     2     2
-5.8635184000e-03     1     8     2     3
-3.6228366500e-02     1     8     2     4
-1.3784029000e-03     1     8     2     5
 1.6675200000e-05     1     8     2     6
-1.3245000000e-06     1     8     2     7
 1.9439000000e-06     1     8     2     9
-1.0621443700e-02     1     8     3     1
-8.6138102000e-03     1     8     3     2
 1.1389960000e-04     1     8     3     3
 1.8254200000e-04     1     8     3     4
-1.1582169000e-03     1     8     3     5
-3.6463132000e-03     1     8     3     6
 4.1353500000e-05     1     8     3     7
-5.1165170000e-04     1     8     3     9
-6.5627820300e-02     1     8     4     1
-5.3228955300e-02     1     8     4     2
 1.7927090000e-04     1     8     4     3
 5.6811190000e-04     1     8     4     4
-7.1903169000e-03     1     8     4     5
-2.2529744000e-02     1     8     4     6
 1.4996100000e-05     1     8     4     7
-3.1562481000e-03     1     8     4     9
-2.4954593000e-03     1     8     5     1
-2.0190018000e-03     1     8     5     2
-1.1781655000e-03     1     8     5     3
-7.3099464000e-03     1     8     5     4
-5.6728990000e-04     1     8     5     5
-8.4309670000e-04     1     8     5     6
 3.5800000000e-07     1     8     5     7
-9.2974700000e-05     1     8     5     9
-1.4369800000e-05     1     8     6     1
-2.9775000000e-06     1     8     6     2
-7.3454130000e-04     1     8     6     3
-4.5360067000e-03     1     8     6     4
-1.5307640000e-04     1     8     6     5
 2.3023900000e-05     1     8     6     6
-8.1000000000e-08     1     8     6     7
-6.2470000000e-06     1     8     6     9
 2.1006000000e-06     1     8     7     1
 6.5000000000e-09     1     8     7     2
 2.8237600000e-05     1     8     7     3
-1.0433300000e-05     1     8     7     4
-8.7080000000e-07     1     8     7     5
-4.2600000000e-08     1     8     7     6
 3.1422200000e-05     1     8     7     7
-1.6590000000e-07     1     8     7     9
-3.9576716190e-01     1     8     8     1
-9.5153729000e-02     1     8     8     2
-7.8669560000e-04     1     8     8     3
-1.4776511000e-03     1     8     8     4
 4.1909511100e-02     1     8     8     5
-8.7115693000e-03     1     8     8     6
 3.2804000000e-06     1     8     8     7
-1.7950730000e-03     1     8     8     9
 6.6191600000e-05     1     8     9     1
 2.8289500000e-05     1     8     9     2
 6.8097910000e-04     1     8     9     3
 4.2122862000e-03     1     8     9     4
 1.4954550000e-04     1     8     9     5
 5.5266000000e-06     1     8     9     6
-1.1470000000e-07     1     8     9     7
 3.3963400000e-05     1     8     9     9
 1.0893696100e-02     1     9     2     1
-1.1957008700e-02     1     9     2     2
 6.6498820000e-04     1     9     2     3
 1.2989256000e-03     1     9     2     4
-3.6300352400e-02     1     9     2     5
-9.0597723000e-03     1     9     2     6
 1.2336800000e-05     1     9     2     7
-1.9439000000e-06     1     9     2     8
 1.1991377000e-03     1     9     3     1
 9.5775860000e-04     1     9     3     2
 7.0371564000e-03     1     9     3     3
-3.4053000000e-06     1     9     3     4
 1.6280210000e-04     1     9     3     5
 4.5840460000e-04     1     9     3     6
 3.1544087000e-03     1     9     3     7
 5.1165170000e-04     1     9     3     8
 2.3443611000e-03     1     9     4     1
 1.8708768000e-03     1     9     4     2
-3.4031000000e-06     1     9     4     3
 7.0326046000e-03     1     9     4     4
 3.1321790000e-04     1     9     4     5
 8.8419780000e-04     1     9     4     6
-5.1345160000e-04     1     9     4     7
 3.1562481000e-03     1     9     4     8
-6.5605729700e-02     1     9     5     1
-5.2479325800e-02     1     9     5     2
 1.6523110000e-04     1     9     5     3
 3.1797610000e-04     1     9     5     4
-2.2124101000e-03     1     9     5     5
-2.4721078600e-02     1     9     5     6
 6.6540900000e-05     1     9     5     7
 9.2974700000e-05     1     9     5     8
-1.8611184000e-03     1     9     6     1
-8.8075427000e-03     1     9     6     2
 3.3919640000e-04     1     9     6     3
 6.3445020000e-04     1     9     6     4
-1.7650763700e-02     1     9     6     5
 1.1635960000e-04     1     9     6     6
 5.2648000000e-06     1     9     6     7
 6.2470000000e-06     1     9     6     8
 2.5244700000e-05     1     9     7     1
 2.0265300000e-05     1     9     7     2
 7.3720372000e-03     1     9     7     3
-1.1976138000e-03     1     9     7     4
 1.0285150000e-04     1     9     7     5
 6.3122000000e-06     1     9     7     6
 1.7961158000e-03     1     9     7     7
 1.6590000000e-07     1     9     7     8
 6.6191600000e-05     1     9     8     1
 2.6345600000e-05     1     9     8     2
 1.1926308000e-03     1     9     8     3
 7.3685343000e-03     1     9     8     4
 2.4252020000e-04     1     9     8     5
 1.1773600000e-05     1     9     8     6
 5.1200000000e-08     1     9     8     7
 1.7950730000e-03     1     9     8     8
-4.2465014330e-01     1     9     9     1
-1.1363401050e-01     1     9     9     2
-8.0848160000e-04     1     9     9     3
-1.5672085000e-03     1     9     9     4
 4.2382230200e-02     1     9     9     5
-1.2045680700e-02     1     9     9     6
 6.6718000000e-06     1     9     9     7
-3.3963400000e-05     1     9     9     8
-3.0963484170e-01     2     1     1     2
 2.2360800000e-04     2     1     1     3
 4.3312160000e-04     2     1     1     4
-1.2038869300e-02     2     1     1     5
-9.1058696900e-02     2     1     1     6
 7.8441900000e-05     2     1     1     7
-1.5146710000e-04     2     1     1     8
 1.0893696100e-02     2     1     1     9
-7.1761860000e-04     2     1     3     2
 8.6294605500e-02     2     1     3     3
 1.9630000000e-06     2     1     3     4
-5.1390100000e-05     2     1     3     5
 6.7857800000e-05     2     1     3     6
 1.7013938600e-02     2     1     3     7
 2.7502918000e-03     2     1     3     8
-2.9277040000e-04     2     1     3     9
-1.3892531000e-03     2     1     4     2
 1.9644000000e-06     2     1     4     3
 8.6298859100e-02     2     1     4     4
-9.9296400000e-05     2     1     4     5
 8.1738600000e-05     2     1     4     6
-2.7592407000e-03     2     1     4     7
 1.7000588800e-02     2     1     4     8
-5.7195120000e-04     2     1     4     9
 3.8236362700e-02     2     1     5     2
-4.7209200000e-05     2     1     5     3
-9.1213900000e-05     2     1     5     4
 8.9514834300e-02     2     1     5     5
-2.9602132000e-03     2     1     5     6
 2.1190610000e-04     2     1     5     7
 6.4059890000e-04     2     1     5     8
 1.6178973400e-02     2     1     5     9
 5.7156251200e-02     2     1     6     2
 2.8494230000e-04     2     1     6     3
 3.9779970000e-04     2     1     6     4
-1.3179396900e-02     2     1     6     5
 9.6225883400e-02     2     1     6     6
-6.2610000000e-06     2     1     6     7
 1.9652700000e-05     2     1     6     8
-2.5222960000e-04     2     1     6     9
-6.2361800000e-05     2     1     7     2
 5.3261419300e-02     2     1     7     3
-8.6431525000e-03     2     1     7     4
 6.7322460000e-04     2     1     7     5
-1.3558400000e-05     2     1     7     6
 9.5147005800e-02     2     1     7     7
-1.3310000000e-06     2     1     7     8
-7.9285000000e-06     2     1     7     9
 6.6061100000e-05     2     1     8     2
 8.6138102000e-03     2     1     8     3
 5.3228955300e-02     2     1     8     4
 2.0190018000e-03     2     1     8     5
 2.9775000000e-06     2     1     8     6
-6.5000000000e-09     2     1     8     7
 9.5153729000e-02     2     1     8     8
-2.8289500000e-05     2     1     8     9
 1.1957008700e-02     2     1     9     2
-9.5775860000e-04     2     1     9     3
-1.8708768000e-03     2     1     9     4
 5.2479325800e-02     2     1     9     5
 8.8075427000e-03     2     1     9     6
-2.0265300000e-05     2     1     9     7
-2.6345600000e-05     2     1     9     8
 1.1363401050e-01     2     1     9     9
 3.0963484170e-01     2     2     1     1
 7.1761860000e-04     2     2     1     3
 1.3892531000e-03     2     2     1     4
-3.8236362700e-02     2     2     1     5
-5.7156251200e-02     2     2     1     6
 6.2361800000e-05     2     2     1     7
-6.6061100000e-05     2     2     1     8
-1.1957008700e-02     2     2     1     9
 7.1761860000e-04     2     2     3     1
 3.5090528340e-01     2     2     3     3
 5.9179000000e-06     2     2     3     4
-1.5835100000e-04     2     2     3     5
 5.1404300000e-05     2     2     3     6
 7.5265159100e-02     2     2     3     7
 1.2172878800e-02     2     2     3     8
-1.2640178000e-03     2     2     3     9
 1.3892531000e-03     2     2     4     1
 5.9179000000e-06     2     2     4     3
 3.5091920300e-01     2     2     4     4
-3.0617280000e-04     2     2     4     5
-1.1287100000e-04     2     2     4     6
-1.2211012200e-02     2     2     4     7
 7.5212704300e-02     2     2     4     8
-2.4729905000e-03     2     2     4     9
-3.8236362700e-02     2     2     5     1
-1.5835100000e-04     2     2     5     3
-3.0617280000e-04     2     2     5     4
 3.6096785620e-01     2     2     5     5
-4.9579300000e-04     2     2     5     6
 9.2542180000e-04     2     2     5     7
 2.8449027000e-03     2     2     5     8
 6.9046320900e-02     2     2     5     9
-5.7156251200e-02     2     2     6     1
 5.1404300000e-05     2     2     6     3
-1.1287100000e-04     2     2     6     4
-4.9579300000e-04     2     2     6     5
 3.1639887140e-01     2     2     6     6
 1.8252400000e-05     2     2     6     7
-3.2030600000e-05     2     2     6     8
-1.9402306000e-03     2     2     6     9
 6.2361800000e-05     2     2     7     1
 7.5265159100e-02     2     2     7     3
-1.2211012200e-02     2     2     7     4
 9.2542180000e-04     2     2     7     5
 1.8252400000e-05     2     2     7     6
 3.4677725970e-01     2     2     7     7
-2.0758000000e-06     2     2     7     8
-1.8170200000e-05     2     2     7     9
-6.6061100000e-05     2     2     8     1
 1.2172878800e-02     2     2     8     3
 7.5212704300e-02     2     2     8     4
 2.8449027000e-03     2     2     8     5
-3.2030600000e-05     2     2     8     6
-2.0758000000e-06     2     2     8     7
 3.4678645080e-01     2     2     8     8
-5.9892300000e-05     2     2     8     9
-1.1957008700e-02     2     2     9     1
-1.2640178000e-03     2     2     9     3
-2.4729905000e-03     2     2     9     4
 6.9046320900e-02     2     2     9     5
-1.9402306000e-03     2     2     9     6
-1.8170200000e-05     2     2     9     7
-5.9892300000e-05     2     2     9     8
 3.7170262110e-01     2     2     9     9
-2.2360800000e-04     2     3     1     1
-7.1761860000e-04     2     3     1     2
-1.4000000000e-09     2     3     1     4
-4.1809000000e-06     2     3     1     5
-2.1708450000e-04     2     3     1     6
-3.6247480700e-02     2     3     1     7
-5.8635184000e-03     2     3     1     8
 6.6498820000e-04     2     3     1     9