&FCI NORB=  9,NELEC=  2,MS2=0,
 ORBSYM=1,1,1,1,1,1,1,1,1
 ISYM=1,
&END
 1.0034533140e-01     1     1     2     2
 3.1103445100e-02     1     1     2     3
 4.2673050000e-04     1     1     2     4
-1.1386800000e-05     1     1     2     5
 2.9114000000e-06     1     1     2     6
 6.8764516000e-03     1     1     2     7
-4.8136387000e-03     1     1     2     8
-2.5796000000e-06     1     1     2     9
 3.1103445100e-02     1     1     3     2
 2.5150587710e-01     1     1     3     3
-1.8533283000e-03     1     1     3     4
 5.7564000000e-05     1     1     3     5
-1.4544300000e-05     1     1     3     6
-6.8926565200e-02     1     1     3     7
-4.1826797600e-02     1     1     3     8
-1.5549260000e-04     1     1     3     9
 4.2673050000e-04     1     1     4     2
-1.8533283000e-03     1     1     4     3
 2.7666411360e-01     1     1     4     4
 9.7159100000e-05     1     1     4     5
-2.4464100000e-05     1     1     4     6
-3.3848084100e-02     1     1     4     7
 5.9010967200e-02     1     1     4     8
 2.2324833000e-03     1     1     4     9
-1.1386800000e-05     1     1     5     2
 5.7564000000e-05     1     1     5     3
 9.7159100000e-05     1     1     5     4
 2.8108971890e-01     1     1     5     5
 7.4870000000e-07     1     1     5     6
 1.0038011000e-03     1     1     5     7
-2.3280829000e-03     1     1     5     8
 6.6188656200e-02     1     1     5     9
 2.9114000000e-06     1     1     6     2
-1.4544300000e-05     1     1     6     3
-2.4464100000e-05     1     1     6     4
 7.4870000000e-07     1     1     6     5
 2.8109632340e-01     1     1     6     6
-2.5241860000e-04     1     1     6     7
-2.7908614000e-03     1     1     6     8
-6.4665837000e-03     1     1     6     9
 6.8764516000e-03     1     1     7     2
-6.8926565200e-02     1     1     7     3
-3.3848084100e-02     1     1     7     4
 1.0038011000e-03     1     1     7     5
-2.5241860000e-04     1     1     7     6
 2.9531215870e-01     1     1     7     7
 7.6297825000e-03     1     1     7     8
-1.0304200000e-05     1     1     7     9
-4.8136387000e-03     1     1     8     2
-4.1826797600e-02     1     1     8     3
 5.9010967200e-02     1     1     8     4
-2.3280829000e-03     1     1     8     5
-2.7908614000e-03     1     1     8     6
 7.6297825000e-03     1     1     8     7
 3.2198947510e-01     1     1     8     8
 4.3220900000e-05     1     1     8     9
-2.5796000000e-06     1     1     9     2
-1.5549260000e-04     1     1     9     3
 2.2324833000e-03     1     1     9     4
 6.6188656200e-02     1     1     9     5
-6.4665837000e-03     1     1     9     6
-1.0304200000e-05     1     1     9     7
 4.3220900000e-05     1     1     9     8
 3.2396444440e-01     1     1     9     9
-1.0034533140e-01     1     2     2     1
-1.7173929800e-02     1     2     2     3
-1.2441611700e-02     1     2     2     4
 3.9157200000e-04     1     2     2     5
-9.7938500000e-05     1     2     2     6
-4.3403431000e-03     1     2     2     7
 5.6719452000e-03     1     2     2     8
 3.6137000000e-06     1     2     2     9
-3.1103445100e-02     1     2     3     1
-7.7521102400e-02     1     2     3     3
 3.8801954000e-03     1     2     3     4
-1.1958950000e-04     1     2     3     5
 3.0017100000e-05     1     2     3     6
 4.6198529600e-02     1     2     3     7
 1.9156203400e-02     1     2     3     8
 8.6420600000e-05     1     2     3     9
-4.2673050000e-04     1     2     4     1
 5.8012761000e-03     1     2     4     3
-1.0076578680e-01     1     2     4     4
-5.6946500000e-05     1     2     4     5
 1.4350300000e-05     1     2     4     6
 2.1157789700e-02     1     2     4     7
-3.7550255100e-02     1     2     4     8
-1.3900500000e-03     1     2     4     9
 1.1386800000e-05     1     2     5     1
-1.8074860000e-04     1     2     5     3
-5.7457100000e-05     1     2     5     4
-1.0328614010e-01     1     2     5     5
-4.4430000000e-07     1     2     5     6
-6.2680550000e-04     1     2     5     7
 1.4789526000e-03     1     2     5     8
-4.1273538600e-02     1     2     5     9
-2.9114000000e-06     1     2     6     1
 4.5297000000e-05     1     2     6     3
 1.4454600000e-05     1     2     6     4
-4.4720000000e-07     1     2     6     5
-1.0328981130e-01     1     2     6     6
 1.5758460000e-04     1     2     6     7
 1.7351210000e-03     1     2     6     8
 4.0323740000e-03     1     2     6     9
-6.8764516000e-03     1     2     7     1
 4.0969348400e-02     1     2     7     3
 1.6418342700e-02     1     2     7     4
-4.8306870000e-04     1     2     7     5
 1.2154750000e-04     1     2     7     6
-1.0184192430e-01     1     2     7     7
-5.7998783000e-03     1     2     7     8
 1.0894200000e-05     1     2     7     9
 4.8136387000e-03     1     2     8     1
 1.7034719500e-02     1     2     8     3
-3.1614633500e-02     1     2     8     4
 1.2464424000e-03     1     2     8     5
 1.4711247000e-03     1     2     8     6
-6.8990760000e-03     1     2     8     7
-1.2643101270e-01     1     2     8     8
-3.8515200000e-05     1     2     8     9
 2.5796000000e-06     1     2     9     1
 7.7451800000e-05     1     2     9     3
-1.1786026000e-03     1     2     9     4
-3.4972817300e-02     1     2     9     5
 3.4166530000e-03     1     2     9     6
 9.0449000000e-06     1     2     9     7
-3.7671200000e-05     1     2     9     8
-1.2529563260e-01     1     2     9     9
-3.1103445100e-02     1     3     2     1
 1.7173929800e-02     1     3     2     2
-1.9210807000e-03     1     3     2     4
 6.1159100000e-05     1     3     2     5
-1.5279900000e-05     1     3     2     6
 5.2291812000e-03     1     3     2     7
 2.1214839000e-03     1     3     2     8
 8.9688000000e-06     1     3     2     9
-2.5150587710e-01     1     3     3     1
 7.7521102400e-02     1     3     3     2
-1.0224124000e-02     1     3     3     4
 3.2345660000e-04     1     3     3     5
-8.0740800000e-05     1     3     3     6
 3.2311633000e-02     1     3     3     7
 2.2896386400e-02     1     3     3     8
 7.8350300000e-05     1     3     3     9
 1.8533283000e-03     1     3     4     1
-5.8012761000e-03     1     3     4     2
-6.2834104400e-02     1     3     4     4
-2.1644800000e-05     1     3     4     5
 5.4898000000e-06     1     3     4     6
 1.7791758900e-02     1     3     4     7
-3.8783650100e-02     1     3     4     8
-1.4726773000e-03     1     3     4     9
-5.7564000000e-05     1     3     5     1
 1.8074860000e-04     1     3     5     2
-2.1733300000e-05     1     3     5     4
-6.4037131400e-02     1     3     5     5
-1.7020000000e-07     1     3     5     6
-5.1923090000e-04     1     3     5     7
 1.5278060000e-03     1     3     5     8
-4.3464716200e-02     1     3     5     9
 1.4544300000e-05     1     3     6     1
-4.5297000000e-05     1     3     6     2
 5.4751000000e-06     1     3     6     4
-1.6950000000e-07     1     3     6     5
-6.4039108200e-02     1     3     6     6
 1.3065460000e-04     1     3     6     7
 1.8295322000e-03     1     3     6     8
 4.2464416000e-03     1     3     6     9
 6.8926565200e-02     1     3     7     1
-4.0969348400e-02     1     3     7     2
 7.9887098000e-03     1     3     7     4
-2.3786920000e-04     1     3     7     5
 5.9782700000e-05     1     3     7     6
-5.7525888000e-02     1     3     7     7
-1.9914040000e-03     1     3     7     8
 8.2307000000e-06     1     3     7     9
 4.1826797600e-02     1     3     8     1
-1.7034719500e-02     1     3     8     2
-1.0948707300e-02     1     3     8     4
 4.3414800000e-04     1     3     8     5
 5.3719140000e-04     1     3     8     6
-3.2541983000e-03     1     3     8     7
-7.2295061100e-02     1     3     8     8
-2.5587400000e-05     1     3     8     9
 1.5549260000e-04     1     3     9     1
-7.7451800000e-05     1     3     9     2
-4.2546250000e-04     1     3     9     4
-1.2659588300e-02     1     3     9     5
 1.2362098000e-03     1     3     9     6
 3.2864000000e-06     1     3     9     7
-2.4154800000e-05     1     3     9     8
-7.1372617300e-02     1     3     9     9
-4.2673050000e-04     1     4     2     1
 1.2441611700e-02     1     4     2     2
 1.9210807000e-03     1     4     2     3
 5.1060000000e-07     1     4     2     5
-1.0430000000e-07     1     4     2     6
 4.7394470000e-03     1     4     2     7
-5.9356216000e-03     1     4     2     8
-2.1144740000e-04     1     4     2     9
 1.8533283000e-03     1     4     3     1
-3.8801954000e-03     1     4     3     2
 1.0224124000e-02     1     4     3     3
 8.8500000000e-08     1     4     3     5
 1.4700000000e-08     1     4     3     6
 9.8030491000e-03     1     4     3     7
-2.7834942800e-02     1     4     3     8
-1.0472148000e-03     1     4     3     9
-2.7666411360e-01     1     4     4     1
 1.0076578680e-01     1     4     4     2
 6.2834104400e-02     1     4     4     3
 4.2438110000e-04     1     4     4     5
-1.0603740000e-04     1     4     4     6
-2.0318145600e-02     1     4     4     7
-4.6549370000e-03     1     4     4     8
-4.3468200000e-05     1     4     4     9
-9.7159100000e-05     1     4     5     1
 5.7457100000e-05     1     4     5     2
 2.1733300000e-05     1     4     5     3
 1.3527582100e-02     1     4     5     5
 1.5000000000e-09     1     4     5     6
-3.6171100000e-05     1     4     5     7
 2.3114300000e-05     1     4     5     8
 1.2166950000e-04     1     4     5     9
 2.4464100000e-05     1     4     6     1
-1.4454600000e-05     1     4     6     2
-5.4751000000e-06     1     4     6     3
-1.5100000000e-08     1     4     6     5
 1.3527770400e-02     1     4     6     6
 8.8854000000e-06     1     4     6     7
-7.4431000000e-06     1     4     6     8
-1.2133400000e-05     1     4     6     9
 3.3848084100e-02     1     4     7     1
-1.6418342700e-02     1     4     7     2
-7.9887098000e-03     1     4     7     3
-2.9500000000e-07     1     4     7     5
 6.3300000000e-08     1     4     7     6
 2.2140375800e-02     1     4     7     7
 1.0485720500e-02     1     4     7     8
 2.6025100000e-04     1     4     7     9
-5.9010967200e-02     1     4     8     1
 3.1614633500e-02     1     4     8     2
 1.0948707300e-02     1     4     8     3
-4.2262000000e-06     1     4     8     5
-3.2354200000e-05     1     4     8     6
-1.0663925700e-02     1     4     8     7
 8.3109593000e-03     1     4     8     8
-7.2819000000e-06     1     4     8     9
-2.2324833000e-03     1     4     9     1
 1.1786026000e-03     1     4     9     2
 4.2546250000e-04     1     4     9     3
 6.5186080000e-04     1     4     9     5
-6.3837100000e-05     1     4     9     6
-4.2187890000e-04     1     4     9     7
-3.0681890000e-04     1     4     9     8
 1.5547470300e-02     1     4     9     9
 1.1386800000e-05     1     5     2     1
-3.9157200000e-04     1     5     2     2
-6.1159100000e-05     1     5     2     3
-5.1060000000e-07     1     5     2     4
 2.9000000000e-09     1     5     2     6
-1.4373680000e-04     1     5     2     7
 2.3251020000e-04     1     5     2     8
-6.3007213000e-03     1     5     2     9
-5.7564000000e-05     1     5     3     1
 1.1958950000e-04     1     5     3     2
-3.2345660000e-04     1     5     3     3
-8.8500000000e-08     1     5     3     4
-7.0000000000e-10     1     5     3     6
-2.8136170000e-04     1     5     3     7
 1.0936580000e-03     1     5     3     8
-3.0805127900e-02     1     5     3     9
-9.7159100000e-05     1     5     4     1
 5.6946500000e-05     1     5     4     2
 2.1644800000e-05     1     5     4     3
-4.2438110000e-04     1     5     4     4
 1.6600000000e-08     1     5     4     6
-3.5876100000e-05     1     5     4     7
 2.7340500000e-05     1     5     4     8
-5.3019130000e-04     1     5     4     9
-2.8108971890e-01     1     5     5     1
 1.0328614010e-01     1     5     5     2
 6.4037131400e-02     1     5     5     3
-1.3527582100e-02     1     5     5     4
-1.0668010000e-04     1     5     5     6
-2.1798829300e-02     1     5     5     7
-4.1724404000e-03     1     5     5     8
-1.7540500000e-05     1     5     5     9
-7.4870000000e-07     1     5     6     1
 4.4720000000e-07     1     5     6     2
 1.6950000000e-07     1     5     6     3
 1.5100000000e-08     1     5     6     4
-4.2698310000e-04     1     5     6     6
-4.8880000000e-07     1     5     6     7
 4.0770000000e-07     1     5     6     8
-3.9041000000e-06     1     5     6     9
-1.0038011000e-03     1     5     7     1
 4.8306870000e-04     1     5     7     2
 2.3786920000e-04     1     5     7     3
 2.9500000000e-07     1     5     7     4
 5.3000000000e-09     1     5     7     6
-6.8746650000e-04     1     5     7     7
-3.6410090000e-04     1     5     7     8
 6.9967324000e-03     1     5     7     9
 2.3280829000e-03     1     5     8     1
-1.2464424000e-03     1     5     8     2
-4.3414800000e-04     1     5     8     3
 4.2262000000e-06     1     5     8     4
 1.0365000000e-06     1     5     8     6
 4.2818280000e-04     1     5     8     7
-2.1412730000e-04     1     5     8     8
 9.5841660000e-04     1     5     8     9
-6.6188656200e-02     1     5     9     1
 3.4972817300e-02     1     5     9     2
 1.2659588300e-02     1     5     9     3
-6.5186080000e-04     1     5     9     4
-3.0917000000e-06     1     5     9     6
-1.2593860400e-02     1     5     9     7
-8.9177086000e-03     1     5     9     8
-5.1015160000e-04     1     5     9     9
-2.9114000000e-06     1     6     2     1
 9.7938500000e-05     1     6     2     2
 1.5279900000e-05     1     6     2     3
 1.0430000000e-07     1     6     2     4
-2.9000000000e-09     1     6     2     5
 3.6037100000e-05     1     6     2     7
 2.6399630000e-04     1     6     2     8
 6.1572100000e-04     1     6     2     9
 1.4544300000e-05     1     6     3     1
-3.0017100000e-05     1     6     3     2
 8.0740800000e-05     1     6     3     3
-1.4700000000e-08     1     6     3     4
 7.0000000000e-10     1     6     3     5
 7.0871900000e-05     1     6     3     7
 1.2923408000e-03     1     6     3     8
 3.0102318000e-03     1     6     3     9
 2.4464100000e-05     1     6     4     1
-1.4350300000e-05     1     6     4     2
-5.4898000000e-06     1     6     4     3
 1.0603740000e-04     1     6     4     4
-1.6600000000e-08     1     6     4     5
 8.8221000000e-06     1     6     4     7
 2.4911100000e-05     1     6     4     8
 5.1703700000e-05     1     6     4     9
-7.4870000000e-07     1     6     5     1
 4.4430000000e-07     1     6     5     2
 1.7020000000e-07     1     6     5     3
-1.5000000000e-09     1     6     5     4
 1.0668010000e-04     1     6     5     5
-4.9410000000e-07     1     6     5     7
-6.2880000000e-07     1     6     5     8
-8.1240000000e-07     1     6     5     9
-2.8109632340e-01     1     6     6     1
 1.0328981130e-01     1     6     6     2
 6.4039108200e-02     1     6     6     3
-1.3527770400e-02     1     6     6     4
 4.2698310000e-04     1     6     6     5
-2.1804238100e-02     1     6     6     7
-4.1706028000e-03     1     6     6     8
-4.1403800000e-05     1     6     6     9
 2.5241860000e-04     1     6     7     1
-1.2154750000e-04     1     6     7     2
-5.9782700000e-05     1     6     7     3
-6.3300000000e-08     1     6     7     4
-5.3000000000e-09     1     6     7     5
 1.7201590000e-04     1     6     7     7
-2.5143590000e-04     1     6     7     8
-6.8393900000e-04     1     6     7     9
 2.7908614000e-03     1     6     8     1
-1.4711247000e-03     1     6     8     2
-5.3719140000e-04     1     6     8     3
 3.2354200000e-05     1     6     8     4
-1.0365000000e-06     1     6     8     5
 5.4462370000e-04     1     6     8     7
 4.6405950000e-04     1     6     8     8
-9.2353400000e-05     1     6     8     9
 6.4665837000e-03     1     6     9     1
-3.4166530000e-03     1     6     9     2
-1.2362098000e-03     1     6     9     3
 6.3837100000e-05     1     6     9     4
 3.0917000000e-06     1     6     9     5
 1.2302064000e-03     1     6     9     7
 8.7080300000e-04     1     6     9     8
 1.2505250000e-04     1     6     9     9
-6.8764516000e-03     1     7     2     1
 4.3403431000e-03     1     7     2     2
-5.2291812000e-03     1     7     2     3
-4.7394470000e-03     1     7     2     4
 1.4373680000e-04     1     7     2     5
-3.6037100000e-05     1     7     2     6
 1.0991977000e-03     1     7     2     8
 1.8493000000e-06     1     7     2     9
 6.8926565200e-02     1     7     3     1
-4.6198529600e-02     1     7     3     2
-3.2311633000e-02     1     7     3     3
-9.8030491000e-03     1     7     3     4
 2.8136170000e-04     1     7     3     5
-7.0871900000e-05     1     7     3     6
 1.2627943000e-03     1     7     3     8
 4.9443000000e-06     1     7     3     9
 3.3848084100e-02     1     7     4     1
-2.1157789700e-02     1     7     4     2
-1.7791758900e-02     1     7     4     3
 2.0318145600e-02     1     7     4     4
 3.5876100000e-05     1     7     4     5
-8.8221000000e-06     1     7     4     6
 2.1149646200e-02     1     7     4     8
 6.8212990000e-04     1     7     4     9
-1.0038011000e-03     1     7     5     1
 6.2680550000e-04     1     7     5     2
 5.1923090000e-04     1     7     5     3
 3.6171100000e-05     1     7     5     4
 2.1798829300e-02     1     7     5     5
 4.9410000000e-07     1     7     5     6
-7.9228370000e-04     1     7     5     8
 1.9590592800e-02     1     7     5     9
 2.5241860000e-04     1     7     6     1
-1.5758460000e-04     1     7     6     2
-1.3065460000e-04     1     7     6     3
-8.8854000000e-06     1     7     6     4
 4.8880000000e-07     1     7     6     5
 2.1804238100e-02     1     7     6     6
-7.9605960000e-04     1     7     6     8
-1.9141454000e-03     1     7     6     9
-2.9531215870e-01     1     7     7     1
 1.0184192430e-01     1     7     7     2
 5.7525888000e-02     1     7     7     3
-2.2140375800e-02     1     7     7     4
 6.8746650000e-04     1     7     7     5
-1.7201590000e-04     1     7     7     6
-1.3696543000e-03     1     7     7     8
-2.7524800000e-05     1     7     7     9
-7.6297825000e-03     1     7     8     1
 6.8990760000e-03     1     7     8     2
 3.2541983000e-03     1     7     8     3
 1.0663925700e-02     1     7     8     4
-4.2818280000e-04     1     7     8     5
-5.4462370000e-04     1     7     8     6
 1.4575873100e-02     1     7     8     8
 9.7362000000e-06     1     7     8     9
 1.0304200000e-05     1     7     9     1
-9.0449000000e-06     1     7     9     2
-3.2864000000e-06     1     7     9     3
 4.2187890000e-04     1     7     9     4
 1.2593860400e-02     1     7     9     5
-1.2302064000e-03     1     7     9     6
 1.2793400000e-05     1     7     9     8
 1.4402418100e-02     1     7     9     9
 4.8136387000e-03     1     8     2     1
-5.6719452000e-03     1     8     2     2
-2.1214839000e-03     1     8     2     3
 5.9356216000e-03     1     8     2     4
-2.3251020000e-04     1     8     2     5
-2.6399630000e-04     1     8     2     6
-1.0991977000e-03     1     8     2     7
-8.4400000000e-07     1     8     2     9
 4.1826797600e-02     1     8     3     1
-1.9156203400e-02     1     8     3     2
-2.2896386400e-02     1     8     3     3
 2.7834942800e-02     1     8     3     4
-1.0936580000e-03     1     8     3     5
-1.2923408000e-03     1     8     3     6
-1.2627943000e-03     1     8     3     7
-1.4326000000e-06     1     8     3     9
-5.9010967200e-02     1     8     4     1
 3.7550255100e-02     1     8     4     2
 3.8783650100e-02     1     8     4     3
 4.6549370000e-03     1     8     4     4
-2.7340500000e-05     1     8     4     5
-2.4911100000e-05     1     8     4     6
-2.1149646200e-02     1     8     4     7
 2.9953700000e-04     1     8     4     9
 2.3280829000e-03     1     8     5     1
-1.4789526000e-03     1     8     5     2
-1.5278060000e-03     1     8     5     3
-2.3114300000e-05     1     8     5     4
 4.1724404000e-03     1     8     5     5
 6.2880000000e-07     1     8     5     6
 7.9228370000e-04     1     8     5     7
 9.8761252000e-03     1     8     5     9
 2.7908614000e-03     1     8     6     1
-1.7351210000e-03     1     8     6     2
-1.8295322000e-03     1     8     6     3
 7.4431000000e-06     1     8     6     4
-4.0770000000e-07     1     8     6     5
 4.1706028000e-03     1     8     6     6
 7.9605960000e-04     1     8     6     7
-9.6315640000e-04     1     8     6     9
-7.6297825000e-03     1     8     7     1
 5.7998783000e-03     1     8     7     2
 1.9914040000e-03     1     8     7     3
-1.0485720500e-02     1     8     7     4
 3.6410090000e-04     1     8     7     5
 2.5143590000e-04     1     8     7     6
 1.3696543000e-03     1     8     7     7
-3.0572000000e-06     1     8     7     9
-3.2198947510e-01     1     8     8     1
 1.2643101270e-01     1     8     8     2
 7.2295061100e-02     1     8     8     3
-8.3109593000e-03     1     8     8     4
 2.1412730000e-04     1     8     8     5
-4.6405950000e-04     1     8     8     6
-1.4575873100e-02     1     8     8     7
-2.0496000000e-05     1     8     8     9
-4.3220900000e-05     1     8     9     1
 3.7671200000e-05     1     8     9     2
 2.4154800000e-05     1     8     9     3
 3.0681890000e-04     1     8     9     4
 8.9177086000e-03     1     8     9     5
-8.7080300000e-04     1     8     9     6
-1.2793400000e-05     1     8     9     7
 2.8681531000e-03     1     8     9     9
 2.5796000000e-06     1     9     2     1
-3.6137000000e-06     1     9     2     2
-8.9688000000e-06     1     9     2     3
 2.1144740000e-04     1     9     2     4
 6.3007213000e-03     1     9     2     5
-6.1572100000e-04     1     9     2     6
-1.8493000000e-06     1     9     2     7
 8.4400000000e-07     1     9     2     8
 1.5549260000e-04     1     9     3     1
-8.6420600000e-05     1     9     3     2
-7.8350300000e-05     1     9     3     3
 1.0472148000e-03     1     9     3     4
 3.0805127900e-02     1     9     3     5
-3.0102318000e-03     1     9     3     6
-4.9443000000e-06     1     9     3     7
 1.4326000000e-06     1     9     3     8
-2.2324833000e-03     1     9     4     1
 1.3900500000e-03     1     9     4     2
 1.4726773000e-03     1     9     4     3
 4.3468200000e-05     1     9     4     4
 5.3019130000e-04     1     9     4     5
-5.1703700000e-05     1     9     4     6
-6.8212990000e-04     1     9     4     7
-2.9953700000e-04     1     9     4     8
-6.6188656200e-02     1     9     5     1
 4.1273538600e-02     1     9     5     2
 4.3464716200e-02     1     9     5     3
-1.2166950000e-04     1     9     5     4
 1.7540500000e-05     1     9     5     5
 8.1240000000e-07     1     9     5     6
-1.9590592800e-02     1     9     5     7
-9.8761252000e-03     1     9     5     8
 6.4665837000e-03     1     9     6     1
-4.0323740000e-03     1     9     6     2
-4.2464416000e-03     1     9     6     3
 1.2133400000e-05     1     9     6     4
 3.9041000000e-06     1     9     6     5
 4.1403800000e-05     1     9     6     6
 1.9141454000e-03     1     9     6     7
 9.6315640000e-04     1     9     6     8
 1.0304200000e-05     1     9     7     1
-1.0894200000e-05     1     9     7     2
-8.2307000000e-06     1     9     7     3
-2.6025100000e-04     1     9     7     4
-6.9967324000e-03     1     9     7     5
 6.8393900000e-04     1     9     7     6
 2.7524800000e-05     1     9     7     7
 3.0572000000e-06     1     9     7     8
-4.3220900000e-05     1     9     8     1
 3.8515200000e-05     1     9     8     2
 2.5587400000e-05     1     9     8     3
 7.2819000000e-06     1     9     8     4
-9.5841660000e-04     1     9     8     5
 9.2353400000e-05     1     9     8     6
-9.7362000000e-06     1     9     8     7
 2.0496000000e-05     1     9     8     8
-3.2396444440e-01     1     9     9     1
 1.2529563260e-01     1     9     9     2
 7.1372617300e-02     1     9     9     3
-1.5547470300e-02     1     9     9     4
 5.1015160000e-04     1     9     9     5
-1.2505250000e-04     1     9     9     6
-1.4402418100e-02     1     9     9     7
-2.8681531000e-03     1     9     9     8
-1.0034533140e-01     2     1     1     2
-3.1103445100e-02     2     1     1     3
-4.2673050000e-04     2     1     1     4
 1.1386800000e-05     2     1     1     5
-2.9114000000e-06     2     1     1     6
-6.8764516000e-03     2     1     1     7
 4.8136387000e-03     2     1     1     8
 2.5796000000e-06     2     1     1     9
-1.7173929800e-02     2     1     3     2
-7.7521102400e-02     2     1     3     3
 5.8012761000e-03     2     1     3     4
-1.8074860000e-04     2     1     3     5
 4.5297000000e-05     2     1     3     6
 4.0969348400e-02     2     1     3     7
 1.7034719500e-02     2     1     3     8
 7.7451800000e-05     2     1     3     9
-1.2441611700e-02     2     1     4     2
 3.8801954000e-03     2     1     4     3
-1.0076578680e-01     2     1     4     4
-5.7457100000e-05     2     1     4     5
 1.4454600000e-05     2     1     4     6
 1.6418342700e-02     2     1     4     7
-3.1614633500e-02     2     1     4     8
-1.1786026000e-03     2     1     4     9
 3.9157200000e-04     2     1     5     2
-1.1958950000e-04     2     1     5     3
-5.6946500000e-05     2     1     5     4
-1.0328614010e-01     2     1     5     5
-4.4720000000e-07     2     1     5     6
-4.8306870000e-04     2     1     5     7
 1.2464424000e-03     2     1     5     8
-3.4972817300e-02     2     1     5     9
-9.7938500000e-05     2     1     6     2
 3.0017100000e-05     2     1     6     3
 1.4350300000e-05     2     1     6     4
-4.4430000000e-07     2     1     6     5
-1.0328981130e-01     2     1     6     6
 1.2154750000e-04     2     1     6     7
 1.4711247000e-03     2     1     6     8
 3.4166530000e-03     2     1     6     9
-4.3403431000e-03     2     1     7     2
 4.6198529600e-02     2     1     7     3
 2.1157789700e-02     2     1     7     4
-6.2680550000e-04     2     1     7     5
 1.5758460000e-04     2     1     7     6
-1.0184192430e-01     2     1     7     7
-6.8990760000e-03     2     1     7     8
 9.0449000000e-06     2     1     7     9
 5.6719452000e-03     2     1     8     2
 1.9156203400e-02     2     1     8     3
-3.7550255100e-02     2     1     8     4
 1.4789526000e-03     2     1     8     5
 1.7351210000e-03     2     1     8     6
-5.7998783000e-03     2     1     8     7
-1.2643101270e-01     2     1     8     8
-3.7671200000e-05     2     1     8     9
 3.6137000000e-06     2     1     9     2
 8.6420600000e-05     2     1     9     3
-1.3900500000e-03     2     1     9     4
-4.1273538600e-02     2     1     9     5
 4.0323740000e-03     2     1     9     6
 1.0894200000e-05     2     1     9     7
-3.8515200000e-05     2     1     9     8
-1.2529563260e-01     2     1     9     9
 1.0034533140e-01     2     2     1     1
 1.7173929800e-02     2     2     1     3
 1.2441611700e-02     2     2     1     4
-3.9157200000e-04     2     2     1     5
 9.7938500000e-05     2     2     1     6
 4.3403431000e-03     2     2     1     7
-5.6719452000e-03     2     2     1     8
-3.6137000000e-06     2     2     1     9
 1.7173929800e-02     2     2     3     1
 1.3608727890e-01     2     2     3     3
 4.8711601000e-03     2     2     3     4
-1.5189620000e-04     2     2     3     5
 3.7930200000e-05     2     2     3     6
-1.8603059900e-02     2     2     3     7
-2.0533773800e-02     2     2     3     8
-6.0299100000e-05     2     2     3     9
 1.2441611700e-02     2     2     4     1
 4.8711601000e-03     2     2     4     3
 1.5962581850e-01     2     2     4     4
-3.3744600000e-05     2     2     4     5
 8.3881000000e-06     2     2     4     6
-8.6887081000e-03     2     2     4     7
 1.7933114200e-02     2     2     4     8
 7.2869100000e-04     2     2     4     9
-3.9157200000e-04     2     2     5     1
-1.5189620000e-04     2     2     5     3
-3.3744600000e-05     2     2     5     4
 1.5907723630e-01     2     2     5     5
-2.7360000000e-07     2     2     5     6
 2.5386250000e-04     2     2     5     7
-7.1136000000e-04     2     2     5     8
 2.1424315100e-02     2     2     5     9
 9.7938500000e-05     2     2     6     1
 3.7930200000e-05     2     2     6     3
 8.3881000000e-06     2     2     6     4
-2.7360000000e-07     2     2     6     5
 1.5907755370e-01     2     2     6     6
-6.3953400000e-05     2     2     6     7
-9.1037350000e-04     2     2     6     8
-2.0930455000e-03     2     2     6     9
 4.3403431000e-03     2     2     7     1
-1.8603059900e-02     2     2     7     3
-8.6887081000e-03     2     2     7     4
 2.5386250000e-04     2     2     7     5
-6.3953400000e-05     2     2     7     6
 1.7098018850e-01     2     2     7     7
-6.5540090000e-04     2     2     7     8
 1.1634000000e-06     2     2     7     9
-5.6719452000e-03     2     2     8     1
-2.0533773800e-02     2     2     8     3
 1.7933114200e-02     2     2     8     4
-7.1136000000e-04     2     2     8     5
-9.1037350000e-04     2     2     8     6
-6.5540090000e-04     2     2     8     7
 1.7022462550e-01     2     2     8     8
-8.0870000000e-07     2     2     8     9
-3.6137000000e-06     2     2     9     1
-6.0299100000e-05     2     2     9     3
 7.2869100000e-04     2     2     9     4
 2.1424315100e-02     2     2     9     5
-2.0930455000e-03     2     2     9     6
 1.1634000000e-06     2     2     9     7
-8.0870000000e-07     2     2     9     8
 1.7300679710e-01     2     2     9     9
 3.1103445100e-02     2     3     1     1
-1.7173929800e-02     2     3     1     2
 1.9210807000e-03     2     3     1     4
-6.1159100000e-05     2     3     1     5
 1.5279900000e-05     2     3     1     6
-5.2291812000e-03     2     3     1     7
-2.1214839000e-03     2     3     1     8
-8.9688000000e-06     2     3     1     9