&FCI NORB=  9,NELEC=  2,MS2=0,
 ORBSYM=1,1,1,1,1,1,1,1,1
 ISYM=1,
&END
 2.3137564520e-01     1     1     2     2
-1.4866156000e-03     1     1     2     3
-7.1433000000e-06     1     1     2     4
-2.8241000000e-06     1     1     2     5
 6.6223740500e-02     1     1     2     6
-5.7644990000e-04     1     1     2     7
-2.9650510000e-04     1     1     2     8
-2.8195106400e-02     1     1     2     9
-1.4866156000e-03     1     1     3     2
 2.9648532660e-01     1     1     3     3
-3.8364000000e-06     1     1     3     4
 1.7799000000e-06     1     1     3     5
-3.7894699000e-03     1     1     3     6
-1.3220885000e-03     1     1     3     7
-9.3122820000e-04     1     1     3     8
-6.1974953700e-02     1     1     3     9
-7.1433000000e-06     1     1     4     2
-3.8364000000e-06     1     1     4     3
 2.9904269670e-01     1     1     4     4
-1.8400000000e-08     1     1     4     5
-1.2331200000e-05     1     1     4     6
-1.4298028700e-02     1     1     4     7
 5.9712250100e-02     1     1     4     8
-6.1335330000e-04     1     1     4     9
-2.8241000000e-06     1     1     5     2
 1.7799000000e-06     1     1     5     3
-1.8400000000e-08     1     1     5     4
 2.9903742620e-01     1     1     5     5
 1.7678600000e-05     1     1     5     6
-5.9713674400e-02     1     1     5     7
-1.4278359800e-02     1     1     5     8
 1.5526113000e-03     1     1     5     9
 6.6223740500e-02     1     1     6     2
-3.7894699000e-03     1     1     6     3
-1.2331200000e-05     1     1     6     4
 1.7678600000e-05     1     1     6     5
 3.2645628610e-01     1     1     6     6
 1.8894650000e-04     1     1     6     7
 8.6168600000e-05     1     1     6     8
 8.4198209000e-03     1     1     6     9
-5.7644990000e-04     1     1     7     2
-1.3220885000e-03     1     1     7     3
-1.4298028700e-02     1     1     7     4
-5.9713674400e-02     1     1     7     5
 1.8894650000e-04     1     1     7     6
 3.2204984960e-01     1     1     7     7
-1.6670000000e-07     1     1     7     8
 1.0611900000e-05     1     1     7     9
-2.9650510000e-04     1     1     8     2
-9.3122820000e-04     1     1     8     3
 5.9712250100e-02     1     1     8     4
-1.4278359800e-02     1     1     8     5
 8.6168600000e-05     1     1     8     6
-1.6670000000e-07     1     1     8     7
 3.2203406060e-01     1     1     8     8
 1.2423400000e-05     1     1     8     9
-2.8195106400e-02     1     1     9     2
-6.1974953700e-02     1     1     9     3
-6.1335330000e-04     1     1     9     4
 1.5526113000e-03     1     1     9     5
 8.4198209000e-03     1     1     9     6
 1.0611900000e-05     1     1     9     7
 1.2423400000e-05     1     1     9     8
 3.2867553740e-01     1     1     9     9
-2.3137564520e-01     1     2     2     1
 3.4535613300e-02     1     2     2     3
 1.5695120000e-04     1     2     2     4
-7.3351900000e-05     1     2     2     5
-4.7050277800e-02     1     2     2     6
 7.7967600000e-05     1     2     2     7
 4.2630100000e-05     1     2     2     8
 4.1751262000e-03     1     2     2     9
 1.4866156000e-03     1     2     3     1
-8.0890881400e-02     1     2     3     3
-1.3191300000e-05     1     2     3     4
 7.5082000000e-06     1     2     3     5
-7.5527891000e-03     1     2     3     6
 1.1218263000e-03     1     2     3     7
 7.9469200000e-04     1     2     3     8
 5.2045561300e-02     1     2     3     9
 7.1433000000e-06     1     2     4     1
-1.3528000000e-05     1     2     4     3
-7.8951899200e-02     1     2     4     4
 5.5400000000e-08     1     2     4     5
-3.8160500000e-05     1     2     4     6
 1.2242643300e-02     1     2     4     7
-5.1135100200e-02     1     2     4     8
 5.1906650000e-04     1     2     4     9
 2.8241000000e-06     1     2     5     1
 6.9868000000e-06     1     2     5     3
 4.2000000000e-08     1     2     5     4
-7.8949004900e-02     1     2     5     5
 8.7623000000e-06     1     2     5     6
 5.1129569900e-02     1     2     5     7
 1.2226775600e-02     1     2     5     8
-1.3146813000e-03     1     2     5     9
-6.6223740500e-02     1     2     6     1
-1.9589827000e-03     1     2     6     3
-1.1047800000e-05     1     2     6     4
-1.1387000000e-06     1     2     6     5
-7.7587530600e-02     1     2     6     6
-2.7064950000e-04     1     2     6     7
-1.3147040000e-04     1     2     6     8
-1.3418316400e-02     1     2     6     9
 5.7644990000e-04     1     2     7     1
 5.7902600000e-04     1     2     7     3
 6.5720086000e-03     1     2     7     4
 2.7453404300e-02     1     2     7     5
-8.5397200000e-05     1     2     7     6
-7.5925885500e-02     1     2     7     7
-2.1070000000e-07     1     2     7     8
 1.0039800000e-05     1     2     7     9
 2.9650510000e-04     1     2     8     1
 4.1493440000e-04     1     2     8     3
-2.7455216900e-02     1     2     8     4
 6.5638484000e-03     1     2     8     5
-3.7443400000e-05     1     2     8     6
 8.3340000000e-07     1     2     8     7
-7.5912925300e-02     1     2     8     8
-1.8832000000e-06     1     2     8     9
 2.8195106400e-02     1     2     9     1
 2.6832659300e-02     1     2     9     3
 2.7392140000e-04     1     2     9     4
-7.0335490000e-04     1     2     9     5
-4.3037665000e-03     1     2     9     6
 1.0211600000e-05     1     2     9     7
-2.8606000000e-06     1     2     9     8
-8.0186345500e-02     1     2     9     9
 1.4866156000e-03     1     3     2     1
-3.4535613300e-02     1     3     2     2
 3.3670000000e-07     1     3     2     4
 5.2140000000e-07     1     3     2     5
-5.5938064000e-03     1     3     2     6
 5.4280030000e-04     1     3     2     7
 3.7975760000e-04     1     3     2     8
 2.5212902000e-02     1     3     2     9
-2.9648532660e-01     1     3     3     1
 8.0890881400e-02     1     3     3     2
 1.8643360000e-04     1     3     3     4
-9.3735800000e-05     1     3     3     5
 2.6248955500e-02     1     3     3     6
 1.1650700000e-04     1     3     3     7
 4.4498000000e-05     1     3     3     8
 6.6978884000e-03     1     3     3     9
 3.8364000000e-06     1     3     4     1
 1.3528000000e-05     1     3     4     2
-4.1625809300e-02     1     3     4     4
-4.9000000000e-09     1     3     4     5
 6.4514000000e-06     1     3     4     6
 1.1390570000e-04     1     3     4     7
-4.7063890000e-04     1     3     4     8
 7.2510000000e-07     1     3     4     9
-1.7799000000e-06     1     3     5     1
-6.9868000000e-06     1     3     5     2
-9.0000000000e-10     1     3     5     4
-4.1625572500e-02     1     3     5     5
-4.0466000000e-06     1     3     5     6
 4.7948870000e-04     1     3     5     7
 1.1291340000e-04     1     3     5     8
-3.2455600000e-05     1     3     5     9
 3.7894699000e-03     1     3     6     1
 1.9589827000e-03     1     3     6     2
-5.1860000000e-07     1     3     6     4
-7.4070000000e-07     1     3     6     5
-4.1936659900e-02     1     3     6     6
 2.6069200000e-04     1     3     6     7
 1.8493320000e-04     1     3     6     8
 1.3152109500e-02     1     3     6     9
 1.3220885000e-03     1     3     7     1
-5.7902600000e-04     1     3     7     2
 5.4316080000e-04     1     3     7     4
 2.2686203000e-03     1     3     7     5
-2.3199530000e-04     1     3     7     6
-4.4193595700e-02     1     3     7     7
 5.1330000000e-07     1     3     7     8
 4.2981100000e-05     1     3     7     9
 9.3122820000e-04     1     3     8     1
-4.1493440000e-04     1     3     8     2
-2.2683731000e-03     1     3     8     4
 5.4279320000e-04     1     3     8     5
-1.7066660000e-04     1     3     8     6
 3.9620000000e-07     1     3     8     7
-4.4193283500e-02     1     3     8     8
 3.0815200000e-05     1     3     8     9
 6.1974953700e-02     1     3     9     1
-2.6832659300e-02     1     3     9     2
 1.2528900000e-05     1     3     9     4
-5.2904200000e-05     1     3     9     5
-9.9988023000e-03     1     3     9     6
 3.7671100000e-05     1     3     9     7
 2.1635900000e-05     1     3     9     8
-4.2817266300e-02     1     3     9     9
 7.1433000000e-06     1     4     2     1
-1.5695120000e-04     1     4     2     2
-3.3670000000e-07     1     4     2     3
 1.3400000000e-08     1     4     2     5
-2.7112700000e-05     1     4     2     6
 5.6706347000e-03     1     4     2     7
-2.3679883300e-02     1     4     2     8
 2.4514510000e-04     1     4     2     9
 3.8364000000e-06     1     4     3     1
 1.3191300000e-05     1     4     3     2
-1.8643360000e-04     1     4     3     3
-4.0000000000e-09     1     4     3     5
 6.9700000000e-06     1     4     3     6
-4.2925510000e-04     1     4     3     7
 1.7977342000e-03     1     4     3     8
-1.1803800000e-05     1     4     3     9
-2.9904269670e-01     1     4     4     1
 7.8951899200e-02     1     4     4     2
 4.1625809300e-02     1     4     4     3
-9.3999800000e-05     1     4     4     5
 2.5236404300e-02     1     4     4     6
 1.7286930000e-04     1     4     4     7
 9.4016400000e-05     1     4     4     8
 7.9812815000e-03     1     4     4     9
 1.8400000000e-08     1     4     5     1
-4.2000000000e-08     1     4     5     2
 9.0000000000e-10     1     4     5     3
-1.8697910000e-04     1     4     5     5
-2.5800000000e-08     1     4     5     6
 4.2428000000e-06     1     4     5     7
-3.8054000000e-06     1     4     5     8
-3.5830000000e-07     1     4     5     9
 1.2331200000e-05     1     4     6     1
 1.1047800000e-05     1     4     6     2
 5.1860000000e-07     1     4     6     3
-1.1400000000e-08     1     4     6     5
-1.8727430000e-04     1     4     6     6
 2.7709662000e-03     1     4     6     7
-1.1566014000e-02     1     4     6     8
 1.2927640000e-04     1     4     6     9
 1.4298028700e-02     1     4     7     1
-6.5720086000e-03     1     4     7     2
-5.4316080000e-04     1     4     7     3
 1.1660300000e-05     1     4     7     5
-2.8913469000e-03     1     4     7     6
-1.9004650000e-04     1     4     7     7
 1.4424000000e-05     1     4     7     8
 4.4485320000e-04     1     4     7     9
-5.9712250100e-02     1     4     8     1
 2.7455216900e-02     1     4     8     2
 2.2683731000e-03     1     4     8     3
-3.0560000000e-06     1     4     8     5
 1.2081835600e-02     1     4     8     6
-3.7645100000e-05     1     4     8     7
-2.1840270000e-04     1     4     8     8
-1.8559278000e-03     1     4     8     9
 6.1335330000e-04     1     4     9     1
-2.7392140000e-04     1     4     9     2
-1.2528900000e-05     1     4     9     3
-2.1210000000e-07     1     4     9     5
-1.0779460000e-04     1     4     9     6
-1.2821850000e-04     1     4     9     7
 5.3913620000e-04     1     4     9     8
-1.8552540000e-04     1     4     9     9
 2.8241000000e-06     1     5     2     1
 7.3351900000e-05     1     5     2     2
-5.2140000000e-07     1     5     2     3
-1.3400000000e-08     1     5     2     4
 9.9010000000e-06     1     5     2     6
 2.3676165600e-02     1     5     2     7
 5.6629272000e-03     1     5     2     8
-6.1132640000e-04     1     5     2     9
-1.7799000000e-06     1     5     3     1
-7.5082000000e-06     1     5     3     2
 9.3735800000e-05     1     5     3     3
 4.0000000000e-09     1     5     3     4
-3.3059000000e-06     1     5     3     6
-1.7891316000e-03     1     5     3     7
-4.2987980000e-04     1     5     3     8
 2.0448600000e-05     1     5     3     9
 1.8400000000e-08     1     5     4     1
-5.5400000000e-08     1     5     4     2
 4.9000000000e-09     1     5     4     3
 9.3999800000e-05     1     5     4     4
-1.4400000000e-08     1     5     4     6
-7.4175000000e-06     1     5     4     7
-7.4940000000e-07     1     5     4     8
-1.4620000000e-07     1     5     4     9
-2.9903742620e-01     1     5     5     1
 7.8949004900e-02     1     5     5     2
 4.1625572500e-02     1     5     5     3
 1.8697910000e-04     1     5     5     4
 2.5234886100e-02     1     5     5     6
 1.8331450000e-04     1     5     5     7
 8.1706700000e-05     1     5     5     8
 7.9823217000e-03     1     5     5     9
-1.7678600000e-05     1     5     6     1
 1.1387000000e-06     1     5     6     2
 7.4070000000e-07     1     5     6     3
 1.1400000000e-08     1     5     6     4
 9.6730700000e-05     1     5     6     6
 1.1565519300e-02     1     5     6     7
 2.7662831000e-03     1     5     6     8
-3.2819900000e-04     1     5     6     9
 5.9713674400e-02     1     5     7     1
-2.7453404300e-02     1     5     7     2
-2.2686203000e-03     1     5     7     3
-1.1660300000e-05     1     5     7     4
-1.2080132800e-02     1     5     7     6
 1.3400840000e-04     1     5     7     7
 1.8974300000e-05     1     5     7     8
 1.8575059000e-03     1     5     7     9
 1.4278359800e-02     1     5     8     1
-6.5638484000e-03     1     5     8     2
-5.4279320000e-04     1     5     8     3
 3.0560000000e-06     1     5     8     4
-2.8885288000e-03     1     5     8     6
 3.2138000000e-06     1     5     8     7
 1.0389140000e-04     1     5     8     8
 4.4407100000e-04     1     5     8     9
-1.5526113000e-03     1     5     9     1
 7.0335490000e-04     1     5     9     2
 5.2904200000e-05     1     5     9     3
 2.1210000000e-07     1     5     9     4
 2.8824460000e-04     1     5     9     6
-5.3992010000e-04     1     5     9     7
-1.2922850000e-04     1     5     9     8
 5.8177500000e-05     1     5     9     9
-6.6223740500e-02     1     6     2     1
 4.7050277800e-02     1     6     2     2
 5.5938064000e-03     1     6     2     3
 2.7112700000e-05     1     6     2     4
-9.9010000000e-06     1     6     2     5
-1.8525230000e-04     1     6     2     7
-9.4027000000e-05     1     6     2     8
-9.1145499000e-03     1     6     2     9
 3.7894699000e-03     1     6     3     1
 7.5527891000e-03     1     6     3     2
-2.6248955500e-02     1     6     3     3
-6.9700000000e-06     1     6     3     4
 3.3059000000e-06     1     6     3     5
 4.9268730000e-04     1     6     3     7
 3.5559980000e-04     1     6     3     8
 2.3150911800e-02     1     6     3     9
 1.2331200000e-05     1     6     4     1
 3.8160500000e-05     1     6     4     2
-6.4514000000e-06     1     6     4     3
-2.5236404300e-02     1     6     4     4
 1.4400000000e-08     1     6     4     5
 5.6623131000e-03     1     6     4     7
-2.3647849600e-02     1     6     4     8
 2.3707100000e-04     1     6     4     9
-1.7678600000e-05     1     6     5     1
-8.7623000000e-06     1     6     5     2
 4.0466000000e-06     1     6     5     3
 2.5800000000e-08     1     6     5     4
-2.5234886100e-02     1     6     5     5
 2.3645652100e-02     1     6     5     7
 5.6548119000e-03     1     6     5     8
-6.1644360000e-04     1     6     5     9
-3.2645628610e-01     1     6     6     1
 7.7587530600e-02     1     6     6     2
 4.1936659900e-02     1     6     6     3
 1.8727430000e-04     1     6     6     4
-9.6730700000e-05     1     6     6     5
 3.7304500000e-05     1     6     6     7
 1.4327600000e-05     1     6     6     8
 1.2457556000e-03     1     6     6     9
-1.8894650000e-04     1     6     7     1
 8.5397200000e-05     1     6     7     2
 2.3199530000e-04     1     6     7     3
 2.8913469000e-03     1     6     7     4
 1.2080132800e-02     1     6     7     5
-1.2479386800e-02     1     6     7     7
-8.5040000000e-07     1     6     7     8
-3.0501200000e-05     1     6     7     9
-8.6168600000e-05     1     6     8     1
 3.7443400000e-05     1     6     8     2
 1.7066660000e-04     1     6     8     3
-1.2081835600e-02     1     6     8     4
 2.8885288000e-03     1     6     8     5
-1.7290000000e-07     1     6     8     7
-1.2474278100e-02     1     6     8     8
-1.7362400000e-05     1     6     8     9
-8.4198209000e-03     1     6     9     1
 4.3037665000e-03     1     6     9     2
 9.9988023000e-03     1     6     9     3
 1.0779460000e-04     1     6     9     4
-2.8824460000e-04     1     6     9     5
-3.1685100000e-05     1     6     9     7
-1.8792500000e-05     1     6     9     8
-1.5358689600e-02     1     6     9     9
 5.7644990000e-04     1     7     2     1
-7.7967600000e-05     1     7     2     2
-5.4280030000e-04     1     7     2     3
-5.6706347000e-03     1     7     2     4
-2.3676165600e-02     1     7     2     5
 1.8525230000e-04     1     7     2     6
-1.0441000000e-06     1     7     2     8
-1.7180000000e-07     1     7     2     9
 1.3220885000e-03     1     7     3     1
-1.1218263000e-03     1     7     3     2
-1.1650700000e-04     1     7     3     3
 4.2925510000e-04     1     7     3     4
 1.7891316000e-03     1     7     3     5
-4.9268730000e-04     1     7     3     6
 1.1710000000e-07     1     7     3     8
 5.3100000000e-06     1     7     3     9
 1.4298028700e-02     1     7     4     1
-1.2242643300e-02     1     7     4     2
-1.1390570000e-04     1     7     4     3
-1.7286930000e-04     1     7     4     4
 7.4175000000e-06     1     7     4     5
-5.6623131000e-03     1     7     4     6
 5.2069100000e-05     1     7     4     8
 5.7307170000e-04     1     7     4     9
 5.9713674400e-02     1     7     5     1
-5.1129569900e-02     1     7     5     2
-4.7948870000e-04     1     7     5     3
-4.2428000000e-06     1     7     5     4
-1.8331450000e-04     1     7     5     5
-2.3645652100e-02     1     7     5     6
 1.5760500000e-05     1     7     5     8
 2.3974260000e-03     1     7     5     9
-1.8894650000e-04     1     7     6     1
 2.7064950000e-04     1     7     6     2
-2.6069200000e-04     1     7     6     3
-2.7709662000e-03     1     7     6     4
-1.1565519300e-02     1     7     6     5
-3.7304500000e-05     1     7     6     6
-6.7750000000e-07     1     7     6     8
 1.1839000000e-06     1     7     6     9
-3.2204984960e-01     1     7     7     1
 7.5925885500e-02     1     7     7     2
 4.4193595700e-02     1     7     7     3
 1.9004650000e-04     1     7     7     4
-1.3400840000e-04     1     7     7     5
 1.2479386800e-02     1     7     7     6
 5.5319500000e-05     1     7     7     8
 5.6785867000e-03     1     7     7     9
 1.6670000000e-07     1     7     8     1
-8.3340000000e-07     1     7     8     2
-3.9620000000e-07     1     7     8     3
 3.7645100000e-05     1     7     8     4
-3.2138000000e-06     1     7     8     5
 1.7290000000e-07     1     7     8     6
-1.1985530000e-04     1     7     8     8
-6.4500000000e-08     1     7     8     9
-1.0611900000e-05     1     7     9     1
-1.0211600000e-05     1     7     9     2
-3.7671100000e-05     1     7     9     3
 1.2821850000e-04     1     7     9     4
 5.3992010000e-04     1     7     9     5
 3.1685100000e-05     1     7     9     6
-2.6680000000e-07     1     7     9     8
-1.0932360000e-04     1     7     9     9
 2.9650510000e-04     1     8     2     1
-4.2630100000e-05     1     8     2     2
-3.7975760000e-04     1     8     2     3
 2.3679883300e-02     1     8     2     4
-5.6629272000e-03     1     8     2     5
 9.4027000000e-05     1     8     2     6
 1.0441000000e-06     1     8     2     7
 9.7740000000e-07     1     8     2     9
 9.3122820000e-04     1     8     3     1
-7.9469200000e-04     1     8     3     2
-4.4498000000e-05     1     8     3     3
-1.7977342000e-03     1     8     3     4
 4.2987980000e-04     1     8     3     5
-3.5559980000e-04     1     8     3     6
-1.1710000000e-07     1     8     3     7
 9.1793000000e-06     1     8     3     9
-5.9712250100e-02     1     8     4     1
 5.1135100200e-02     1     8     4     2
 4.7063890000e-04     1     8     4     3
-9.4016400000e-05     1     8     4     4
 7.4940000000e-07     1     8     4     5
 2.3647849600e-02     1     8     4     6
-5.2069100000e-05     1     8     4     7
-2.3950640000e-03     1     8     4     9
 1.4278359800e-02     1     8     5     1
-1.2226775600e-02     1     8     5     2
-1.1291340000e-04     1     8     5     3
 3.8054000000e-06     1     8     5     4
-8.1706700000e-05     1     8     5     5
-5.6548119000e-03     1     8     5     6
-1.5760500000e-05     1     8     5     7
 5.7329950000e-04     1     8     5     9
-8.6168600000e-05     1     8     6     1
 1.3147040000e-04     1     8     6     2
-1.8493320000e-04     1     8     6     3
 1.1566014000e-02     1     8     6     4
-2.7662831000e-03     1     8     6     5
-1.4327600000e-05     1     8     6     6
 6.7750000000e-07     1     8     6     7
 1.4301000000e-06     1     8     6     9
 1.6670000000e-07     1     8     7     1
 2.1070000000e-07     1     8     7     2
-5.1330000000e-07     1     8     7     3
-1.4424000000e-05     1     8     7     4
-1.8974300000e-05     1     8     7     5
 8.5040000000e-07     1     8     7     6
-5.5319500000e-05     1     8     7     7
 2.0230000000e-07     1     8     7     9
-3.2203406060e-01     1     8     8     1
 7.5912925300e-02     1     8     8     2
 4.4193283500e-02     1     8     8     3
 2.1840270000e-04     1     8     8     4
-1.0389140000e-04     1     8     8     5
 1.2474278100e-02     1     8     8     6
 1.1985530000e-04     1     8     8     7
 5.6805113000e-03     1     8     8     9
-1.2423400000e-05     1     8     9     1
 2.8606000000e-06     1     8     9     2
-2.1635900000e-05     1     8     9     3
-5.3913620000e-04     1     8     9     4
 1.2922850000e-04     1     8     9     5
 1.8792500000e-05     1     8     9     6
 2.6680000000e-07     1     8     9     7
-5.0289600000e-05     1     8     9     9
 2.8195106400e-02     1     9     2     1
-4.1751262000e-03     1     9     2     2
-2.5212902000e-02     1     9     2     3
-2.4514510000e-04     1     9     2     4
 6.1132640000e-04     1     9     2     5
 9.1145499000e-03     1     9     2     6
 1.7180000000e-07     1     9     2     7
-9.7740000000e-07     1     9     2     8
 6.1974953700e-02     1     9     3     1
-5.2045561300e-02     1     9     3     2
-6.6978884000e-03     1     9     3     3
 1.1803800000e-05     1     9     3     4
-2.0448600000e-05     1     9     3     5
-2.3150911800e-02     1     9     3     6
-5.3100000000e-06     1     9     3     7
-9.1793000000e-06     1     9     3     8
 6.1335330000e-04     1     9     4     1
-5.1906650000e-04     1     9     4     2
-7.2510000000e-07     1     9     4     3
-7.9812815000e-03     1     9     4     4
 1.4620000000e-07     1     9     4     5
-2.3707100000e-04     1     9     4     6
-5.7307170000e-04     1     9     4     7
 2.3950640000e-03     1     9     4     8
-1.5526113000e-03     1     9     5     1
 1.3146813000e-03     1     9     5     2
 3.2455600000e-05     1     9     5     3
 3.5830000000e-07     1     9     5     4
-7.9823217000e-03     1     9     5     5
 6.1644360000e-04     1     9     5     6
-2.3974260000e-03     1     9     5     7
-5.7329950000e-04     1     9     5     8
-8.4198209000e-03     1     9     6     1
 1.3418316400e-02     1     9     6     2
-1.3152109500e-02     1     9     6     3
-1.2927640000e-04     1     9     6     4
 3.2819900000e-04     1     9     6     5
-1.2457556000e-03     1     9     6     6
-1.1839000000e-06     1     9     6     7
-1.4301000000e-06     1     9     6     8
-1.0611900000e-05     1     9     7     1
-1.0039800000e-05     1     9     7     2
-4.2981100000e-05     1     9     7     3
-4.4485320000e-04     1     9     7     4
-1.8575059000e-03     1     9     7     5
 3.0501200000e-05     1     9     7     6
-5.6785867000e-03     1     9     7     7
-2.0230000000e-07     1     9     7     8
-1.2423400000e-05     1     9     8     1
 1.8832000000e-06     1     9     8     2
-3.0815200000e-05     1     9     8     3
 1.8559278000e-03     1     9     8     4
-4.4407100000e-04     1     9     8     5
 1.7362400000e-05     1     9     8     6
 6.4500000000e-08     1     9     8     7
-5.6805113000e-03     1     9     8     8
-3.2867553740e-01     1     9     9     1
 8.0186345500e-02     1     9     9     2
 4.2817266300e-02     1     9     9     3
 1.8552540000e-04     1     9     9     4
-5.8177500000e-05     1     9     9     5
 1.5358689600e-02     1     9     9     6
 1.0932360000e-04     1     9     9     7
 5.0289600000e-05     1     9     9     8
-2.3137564520e-01     2     1     1     2
 1.4866156000e-03     2     1     1     3
 7.1433000000e-06     2     1     1     4
 2.8241000000e-06     2     1     1     5
-6.6223740500e-02     2     1     1     6
 5.7644990000e-04     2     1     1     7
 2.9650510000e-04     2     1     1     8
 2.8195106400e-02     2     1     1     9
 3.4535613300e-02     2     1     3     2
-8.0890881400e-02     2     1     3     3
-1.3528000000e-05     2     1     3     4
 6.9868000000e-06     2     1     3     5
-1.9589827000e-03     2     1     3     6
 5.7902600000e-04     2     1     3     7
 4.1493440000e-04     2     1     3     8
 2.6832659300e-02     2     1     3     9
 1.5695120000e-04     2     1     4     2
-1.3191300000e-05     2     1     4     3
-7.8951899200e-02     2     1     4     4
 4.2000000000e-08     2     1     4     5
-1.1047800000e-05     2     1     4     6
 6.5720086000e-03     2     1     4     7
-2.7455216900e-02     2     1     4     8
 2.7392140000e-04     2     1     4     9
-7.3351900000e-05     2     1     5     2
 7.5082000000e-06     2     1     5     3
 5.5400000000e-08     2     1     5     4
-7.8949004900e-02     2     1     5     5
-1.1387000000e-06     2     1     5     6
 2.7453404300e-02     2     1     5     7
 6.5638484000e-03     2     1     5     8
-7.0335490000e-04     2     1     5     9
-4.7050277800e-02     2     1     6     2
-7.5527891000e-03     2     1     6     3
-3.8160500000e-05     2     1     6     4
 8.7623000000e-06     2     1     6     5
-7.7587530600e-02     2     1     6     6
-8.5397200000e-05     2     1     6     7
-3.7443400000e-05     2     1     6     8
-4.3037665000e-03     2     1     6     9
 7.7967600000e-05     2     1     7     2
 1.1218263000e-03     2     1     7     3
 1.2242643300e-02     2     1     7     4
 5.1129569900e-02     2     1     7     5
-2.7064950000e-04     2     1     7     6
-7.5925885500e-02     2     1     7     7
 8.3340000000e-07     2     1     7     8
 1.0211600000e-05     2     1     7     9
 4.2630100000e-05     2     1     8     2
 7.9469200000e-04     2     1     8     3
-5.1135100200e-02     2     1     8     4
 1.2226775600e-02     2     1     8     5
-1.3147040000e-04     2     1     8     6
-2.1070000000e-07     2     1     8     7
-7.5912925300e-02     2     1     8     8
-2.8606000000e-06     2     1     8     9
 4.1751262000e-03     2     1     9     2
 5.2045561300e-02     2     1     9     3
 5.1906650000e-04     2     1     9     4
-1.3146813000e-03     2     1     9     5
-1.3418316400e-02     2     1     9     6
 1.0039800000e-05     2     1     9     7
-1.8832000000e-06     2     1     9     8
-8.0186345500e-02     2     1     9     9
 2.3137564520e-01     2     2     1     1
-3.4535613300e-02     2     2     1     3
-1.5695120000e-04     2     2     1     4
 7.3351900000e-05     2     2     1     5
 4.7050277800e-02     2     2     1     6
-7.7967600000e-05     2     2     1     7
-4.2630100000e-05     2     2     1     8
-4.1751262000e-03     2     2     1     9
-3.4535613300e-02     2     2     3     1
 2.8604457910e-01     2     2     3     3
-2.1708000000e-06     2     2     3     4
 2.1298000000e-06     2     2     3     5
-1.5484460900e-02     2     2     3     6
-9.6439710000e-04     2     2     3     7
-6.8549710000e-04     2     2     3     8
-4.5380443600e-02     2     2     3     9
-1.5695120000e-04     2     2     4     1
-2.1708000000e-06     2     2     4     3
 2.8793023600e-01     2     2     4     4
-1.0500000000e-08     2     2     4     5
-6.4471200000e-05     2     2     4     6
-1.0710718100e-02     2     2     4     7
 4.4728957600e-02     2     2     4     8
-4.5365380000e-04     2     2     4     9
 7.3351900000e-05     2     2     5     1
 2.1298000000e-06     2     2     5     3
-1.0500000000e-08     2     2     5     4
 2.8792612620e-01     2     2     5     5
 4.5326200000e-05     2     2     5     6
-4.4734034200e-02     2     2     5     7
-1.0696028000e-02     2     2     5     8
 1.1670767000e-03     2     2     5     9
 4.7050277800e-02     2     2     6     1
-1.5484460900e-02     2     2     6     3
-6.4471200000e-05     2     2     6     4
 4.5326200000e-05     2     2     6     5
 2.5196039010e-01     2     2     6     6
 1.2602400000e-04     2     2     6     7
 6.0477600000e-05     2     2     6     8
 5.6374858000e-03     2     2     6     9
-7.7967600000e-05     2     2     7     1
-9.6439710000e-04     2     2     7     3
-1.0710718100e-02     2     2     7     4
-4.4734034200e-02     2     2     7     5
 1.2602400000e-04     2     2     7     6
 2.7292251870e-01     2     2     7     7
 2.0460000000e-07     2     2     7     8
 3.0338400000e-05     2     2     7     9
-4.2630100000e-05     2     2     8     1
-6.8549710000e-04     2     2     8     3
 4.4728957600e-02     2     2     8     4
-1.0696028000e-02     2     2     8     5
 6.0477600000e-05     2     2     8     6
 2.0460000000e-07     2     2     8     7
 2.7291325660e-01     2     2     8     8
 1.9112100000e-05     2     2     8     9
-4.1751262000e-03     2     2     9     1
-4.5380443600e-02     2     2     9     3
-4.5365380000e-04     2     2     9     4
 1.1670767000e-03     2     2     9     5
 5.6374858000e-03     2     2     9     6
 3.0338400000e-05     2     2     9     7
 1.9112100000e-05     2     2     9     8
 2.7835649120e-01     2     2     9     9
-1.4866156000e-03     2     3     1     1
 3.4535613300e-02     2     3     1     2
-3.3670000000e-07     2     3     1     4
-5.2140000000e-07     2     3     1     5
 5.5938064000e-03     2     3     1     6
-5.4280030000e-04     2     3     1     7
-3.7975760000e-04     2     3     1     8
-2.5212902000e-02     2     3     1     9