&FCI NORB=  9,NELEC=  2,MS2=0,
 ORBSYM=1,1,1,1,1,1,1,1,1
 ISYM=1,
&END
 2.9693166970e-01     1     1     2     2
-1.0430052100e-02     1     1     2     3
-3.0061760000e-04     1     1     2     4
-1.5286300000e-04     1     1     2     5
 8.5568688600e-02     1     1     2     6
-3.1388900000e-05     1     1     2     7
-4.9180700000e-05     1     1     2     8
-1.7351049300e-02     1     1     2     9
-1.0430052100e-02     1     1     3     2
 3.3184931960e-01     1     1     3     3
 8.9793300000e-05     1     1     3     4
 4.5669800000e-05     1     1     3     5
 7.2242570000e-04     1     1     3     6
 2.4259950000e-04     1     1     3     7
-2.2569391000e-03     1     1     3     8
-6.1398417200e-02     1     1     3     9
-3.0061760000e-04     1     1     4     2
 8.9793300000e-05     1     1     4     3
 3.2844472120e-01     1     1     4     4
 1.3677000000e-06     1     1     4     5
 2.7119000000e-05     1     1     4     6
 2.3797427700e-02     1     1     4     7
 5.8954977900e-02     1     1     4     8
-1.9640393000e-03     1     1     4     9
-1.5286300000e-04     1     1     5     2
 4.5669800000e-05     1     1     5     3
 1.3677000000e-06     1     1     5     4
 3.2842175440e-01     1     1     5     5
-2.5625200000e-05     1     1     5     6
-5.8985815300e-02     1     1     5     7
 2.3773686200e-02     1     1     5     8
-1.0620518000e-03     1     1     5     9
 8.5568688600e-02     1     1     6     2
 7.2242570000e-04     1     1     6     3
 2.7119000000e-05     1     1     6     4
-2.5625200000e-05     1     1     6     5
 3.7905305250e-01     1     1     6     6
-1.6976100000e-05     1     1     6     7
 2.0898400000e-05     1     1     6     8
 6.8089903000e-03     1     1     6     9
-3.1388900000e-05     1     1     7     2
 2.4259950000e-04     1     1     7     3
 2.3797427700e-02     1     1     7     4
-5.8985815300e-02     1     1     7     5
-1.6976100000e-05     1     1     7     6
 3.7848229930e-01     1     1     7     7
-5.4925000000e-06     1     1     7     8
-1.0567500000e-05     1     1     7     9
-4.9180700000e-05     1     1     8     2
-2.2569391000e-03     1     1     8     3
 5.8954977900e-02     1     1     8     4
 2.3773686200e-02     1     1     8     5
 2.0898400000e-05     1     1     8     6
-5.4925000000e-06     1     1     8     7
 3.7847859900e-01     1     1     8     8
 2.4100000000e-06     1     1     8     9
-1.7351049300e-02     1     1     9     2
-6.1398417200e-02     1     1     9     3
-1.9640393000e-03     1     1     9     4
-1.0620518000e-03     1     1     9     5
 6.8089903000e-03     1     1     9     6
-1.0567500000e-05     1     1     9     7
 2.4100000000e-06     1     1     9     8
 4.0201265080e-01     1     1     9     9
-2.9693166970e-01     1     2     2     1
-4.1847242900e-02     1     2     2     3
-1.2239171000e-03     1     2     2     4
-6.2247490000e-04     1     2     2     5
 5.5841157000e-02     1     2     2     6
-4.3764000000e-05     1     2     2     7
 3.2327700000e-05     1     2     2     8
 9.9591287000e-03     1     2     2     9
 1.0430052100e-02     1     2     3     1
 8.4046152100e-02     1     2     3     3
 7.9976400000e-05     1     2     3     4
 4.0705400000e-05     1     2     3     5
 1.3624595100e-02     1     2     3     6
 1.9955320000e-04     1     2     3     7
-1.9095998000e-03     1     2     3     8
-5.1880250500e-02     1     2     3     9
 3.0061760000e-04     1     2     4     1
 7.7338200000e-05     1     2     4     3
 8.1250183100e-02     1     2     4     4
 1.2286000000e-06     1     2     4     5
 4.1130780000e-04     1     2     4     6
 2.0098357000e-02     1     2     4     7
 4.9793617000e-02     1     2     4     8
-1.6619531000e-03     1     2     4     9
 1.5286300000e-04     1     2     5     1
 3.9352900000e-05     1     2     5     3
 1.2241000000e-06     1     2     5     4
 8.1238997300e-02     1     2     5     5
 1.7539300000e-04     1     2     5     6
-4.9822829400e-02     1     2     5     7
 2.0079603800e-02     1     2     5     8
-8.9639450000e-04     1     2     5     9
-8.5568688600e-02     1     2     6     1
 3.2824625000e-03     1     2     6     3
 1.0170550000e-04     1     2     6     4
 3.9304400000e-05     1     2     6     5
 9.0718878500e-02     1     2     6     6
-1.8372600000e-05     1     2     6     7
 2.6492500000e-05     1     2     6     8
 1.1491186900e-02     1     2     6     9
 3.1388900000e-05     1     2     7     1
 7.2223600000e-05     1     2     7     3
 7.2947366000e-03     1     2     7     4
-1.8090273500e-02     1     2     7     5
-8.0752000000e-06     1     2     7     6
 8.7641544000e-02     1     2     7     7
-3.8171000000e-06     1     2     7     8
-8.6925000000e-06     1     2     7     9
 4.9180700000e-05     1     2     8     1
-6.8731920000e-04     1     2     8     3
 1.8078043100e-02     1     2     8     4
 7.2885560000e-03     1     2     8     5
-6.0330000000e-07     1     2     8     6
-2.2649000000e-06     1     2     8     7
 8.7640973200e-02     1     2     8     8
 6.4073000000e-06     1     2     8     9
 1.7351049300e-02     1     2     9     1
-1.7947531700e-02     1     2     9     3
-5.7549590000e-04     1     2     9     4
-3.1098570000e-04     1     2     9     5
 1.5577360000e-03     1     2     9     6
-3.6337000000e-06     1     2     9     7
 1.2046100000e-05     1     2     9     8
 1.0145149410e-01     1     2     9     9
 1.0430052100e-02     1     3     2     1
 4.1847242900e-02     1     3     2     2
 2.6382000000e-06     1     3     2     4
 1.3525000000e-06     1     3     2     5
 1.0342132600e-02     1     3     2     6
 1.2732960000e-04     1     3     2     7
-1.2222806000e-03     1     3     2     8
-3.3932718800e-02     1     3     2     9
-3.3184931960e-01     1     3     3     1
-8.4046152100e-02     1     3     3     2
-1.2618072000e-03     1     3     3     4
-6.4182810000e-04     1     3     3     5
-2.5472342700e-02     1     3     3     6
-1.9846300000e-05     1     3     3     7
 3.4984640000e-04     1     3     3     8
 1.0158676000e-03     1     3     3     9
-8.9793300000e-05     1     3     4     1
-7.7338200000e-05     1     3     4     2
 4.2968774800e-02     1     3     4     4
-2.8300000000e-08     1     3     4     5
-2.6138750000e-04     1     3     4     6
-1.7264439000e-03     1     3     4     7
-4.2702281000e-03     1     3     4     8
 2.7453110000e-04     1     3     4     9
-4.5669800000e-05     1     3     5     1
-3.9352900000e-05     1     3     5     2
-3.2600000000e-08     1     3     5     4
 4.2967566600e-02     1     3     5     5
-1.2870660000e-04     1     3     5     6
 4.2793907000e-03     1     3     5     7
-1.7206323000e-03     1     3     5     8
 1.3955790000e-04     1     3     5     9
-7.2242570000e-04     1     3     6     1
-3.2824625000e-03     1     3     6     2
-2.4508000000e-06     1     3     6     4
-1.6586000000e-06     1     3     6     5
 4.2222499700e-02     1     3     6     6
 2.6228400000e-05     1     3     6     7
-1.7760760000e-04     1     3     6     8
-1.3908890100e-02     1     3     6     9
-2.4259950000e-04     1     3     7     1
-7.2223600000e-05     1     3     7     2
 2.5150450000e-04     1     3     7     4
-6.2252590000e-04     1     3     7     5
-6.1033200000e-05     1     3     7     6
 4.6817760500e-02     1     3     7     7
 1.5090000000e-07     1     3     7     8
-3.2834000000e-06     1     3     7     9
 2.2569391000e-03     1     3     8     1
 6.8731920000e-04     1     3     8     2
 6.2267070000e-04     1     3     8     4
 2.5185850000e-04     1     3     8     5
 6.2322110000e-04     1     3     8     6
-2.3570000000e-07     1     3     8     7
 4.6818066100e-02     1     3     8     8
 1.1721330000e-04     1     3     8     9
 6.1398417200e-02     1     3     9     1
 1.7947531700e-02     1     3     9     2
-2.4346000000e-06     1     3     9     4
-2.0354000000e-06     1     3     9     5
 8.7857198000e-03     1     3     9     6
-1.2980600000e-05     1     3     9     7
 6.8967800000e-05     1     3     9     8
 4.8588595000e-02     1     3     9     9
 3.0061760000e-04     1     4     2     1
 1.2239171000e-03     1     4     2     2
-2.6382000000e-06     1     4     2     3
 4.5000000000e-09     1     4     2     5
 3.0960230000e-04     1     4     2     6
 1.2803620400e-02     1     4     2     7
 3.1715573900e-02     1     4     2     8
-1.0864572000e-03     1     4     2     9
-8.9793300000e-05     1     4     3     1
-7.9976400000e-05     1     4     3     2
 1.2618072000e-03     1     4     3     3
 4.3000000000e-09     1     4     3     5
-2.5893670000e-04     1     4     3     6
-1.9779484000e-03     1     4     3     7
-4.8928988000e-03     1     4     3     8
 2.7696570000e-04     1     4     3     9
-3.2844472120e-01     1     4     4     1
-8.1250183100e-02     1     4     4     2
-4.2968774800e-02     1     4     4     3
-6.3749080000e-04     1     4     4     5
-1.6741105900e-02     1     4     4     6
-8.3308000000e-05     1     4     4     7
-3.0368820000e-04     1     4     4     8
-8.2355957000e-03     1     4     4     9
-1.3677000000e-06     1     4     5     1
-1.2241000000e-06     1     4     5     2
 3.2600000000e-08     1     4     5     3
 1.2532604000e-03     1     4     5     5
-3.8176000000e-06     1     4     5     6
 9.4941500000e-05     1     4     5     7
-1.2473740000e-04     1     4     5     8
 3.8549000000e-06     1     4     5     9
-2.7119000000e-05     1     4     6     1
-1.0170550000e-04     1     4     6     2
 2.4508000000e-06     1     4     6     3
-1.6200000000e-08     1     4     6     5
 1.2312226000e-03     1     4     6     6
 1.7370530000e-03     1     4     6     7
 4.3006674000e-03     1     4     6     8
-4.3472860000e-04     1     4     6     9
-2.3797427700e-02     1     4     7     1
-7.2947366000e-03     1     4     7     2
-2.5150450000e-04     1     4     7     3
-2.4640900000e-05     1     4     7     5
-6.7383373000e-03     1     4     7     6
 1.3720398000e-03     1     4     7     7
-1.2730400000e-05     1     4     7     8
-1.5974705000e-03     1     4     7     9
-5.8954977900e-02     1     4     8     1
-1.8078043100e-02     1     4     8     2
-6.2267070000e-04     1     4     8     3
-2.0414000000e-06     1     4     8     5
-1.6694791900e-02     1     4     8     6
 4.3083000000e-06     1     4     8     7
 1.3359918000e-03     1     4     8     8
-3.9588384000e-03     1     4     8     9
 1.9640393000e-03     1     4     9     1
 5.7549590000e-04     1     4     9     2
 2.4346000000e-06     1     4     9     3
-2.2300000000e-08     1     4     9     5
 2.9447720000e-04     1     4     9     6
-1.0816654000e-03     1     4     9     7
-2.6799540000e-03     1     4     9     8
 1.4584006000e-03     1     4     9     9
 1.5286300000e-04     1     5     2     1
 6.2247490000e-04     1     5     2     2
-1.3525000000e-06     1     5     2     3
-4.5000000000e-09     1     5     2     4
 1.3608860000e-04     1     5     2     6
-3.1732555900e-02     1     5     2     7
 1.2791047800e-02     1     5     2     8
-5.8540880000e-04     1     5     2     9
-4.5669800000e-05     1     5     3     1
-4.0705400000e-05     1     5     3     2
 6.4182810000e-04     1     5     3     3
-4.3000000000e-09     1     5     3     4
-1.2704800000e-04     1     5     3     6
 4.9019166000e-03     1     5     3     7
-1.9724908000e-03     1     5     3     8
 1.4159330000e-04     1     5     3     9
-1.3677000000e-06     1     5     4     1
-1.2286000000e-06     1     5     4     2
 2.8300000000e-08     1     5     4     3
 6.3749080000e-04     1     5     4     4
-3.8014000000e-06     1     5     4     6
 1.1958240000e-04     1     5     4     7
-1.2269600000e-04     1     5     4     8
 3.8772000000e-06     1     5     4     9
-3.2842175440e-01     1     5     5     1
-8.1238997300e-02     1     5     5     2
-4.2967566600e-02     1     5     5     3
-1.2532604000e-03     1     5     5     4
-1.6729215600e-02     1     5     5     6
 1.5481030000e-04     1     5     5     7
-9.6580700000e-05     1     5     5     8
-8.2413064000e-03     1     5     5     9
 2.5625200000e-05     1     5     6     1
-3.9304400000e-05     1     5     6     2
 1.6586000000e-06     1     5     6     3
 1.6200000000e-08     1     5     6     4
 6.3803620000e-04     1     5     6     6
-4.3016403000e-03     1     5     6     7
 1.7355438000e-03     1     5     6     8
-2.2586660000e-04     1     5     6     9
 5.8985815300e-02     1     5     7     1
 1.8090273500e-02     1     5     7     2
 6.2252590000e-04     1     5     7     3
 2.4640900000e-05     1     5     7     4
 1.6706418100e-02     1     5     7     6
 6.7189930000e-04     1     5     7     7
 1.7359000000e-05     1     5     7     8
 3.9623794000e-03     1     5     7     9
-2.3773686200e-02     1     5     8     1
-7.2885560000e-03     1     5     8     2
-2.5185850000e-04     1     5     8     3
 2.0414000000e-06     1     5     8     4
-6.7324083000e-03     1     5     8     6
 1.6355400000e-05     1     5     8     7
 6.8994610000e-04     1     5     8     8
-1.5966813000e-03     1     5     8     9
 1.0620518000e-03     1     5     9     1
 3.1098570000e-04     1     5     9     2
 2.0354000000e-06     1     5     9     3
 2.2300000000e-08     1     5     9     4
 1.6652650000e-04     1     5     9     6
 2.6821438000e-03     1     5     9     7
-1.0804958000e-03     1     5     9     8
 7.4659940000e-04     1     5     9     9
-8.5568688600e-02     1     6     2     1
-5.5841157000e-02     1     6     2     2
-1.0342132600e-02     1     6     2     3
-3.0960230000e-04     1     6     2     4
-1.3608860000e-04     1     6     2     5
-1.0297400000e-05     1     6     2     7
 2.7095800000e-05     1     6     2     8
 9.9334509000e-03     1     6     2     9
-7.2242570000e-04     1     6     3     1
-1.3624595100e-02     1     6     3     2
 2.5472342700e-02     1     6     3     3
 2.5893670000e-04     1     6     3     4
 1.2704800000e-04     1     6     3     5
 8.7261600000e-05     1     6     3     7
-8.0082870000e-04     1     6     3     8
-2.2694609900e-02     1     6     3     9
-2.7119000000e-05     1     6     4     1
-4.1130780000e-04     1     6     4     2
 2.6138750000e-04     1     6     4     3
 1.6741105900e-02     1     6     4     4
 3.8014000000e-06     1     6     4     5
 8.4753903000e-03     1     6     4     7
 2.0995459300e-02     1     6     4     8
-7.2920580000e-04     1     6     4     9
 2.5625200000e-05     1     6     5     1
-1.7539300000e-04     1     6     5     2
 1.2870660000e-04     1     6     5     3
 3.8176000000e-06     1     6     5     4
 1.6729215600e-02     1     6     5     5
-2.1008058400e-02     1     6     5     7
 8.4679521000e-03     1     6     5     8
-3.9239310000e-04     1     6     5     9
-3.7905305250e-01     1     6     6     1
-9.0718878500e-02     1     6     6     2
-4.2222499700e-02     1     6     6     3
-1.2312226000e-03     1     6     6     4
-6.3803620000e-04     1     6     6     5
 4.4286000000e-06     1     6     6     7
-3.5371000000e-06     1     6     6     8
 1.1818830000e-04     1     6     6     9
 1.6976100000e-05     1     6     7     1
 8.0752000000e-06     1     6     7     2
 6.1033200000e-05     1     6     7     3
 6.7383373000e-03     1     6     7     4
-1.6706418100e-02     1     6     7     5
 8.1693992000e-03     1     6     7     7
-1.9892000000e-06     1     6     7     8
-1.1994000000e-06     1     6     7     9
-2.0898400000e-05     1     6     8     1
 6.0330000000e-07     1     6     8     2
-6.2322110000e-04     1     6     8     3
 1.6694791900e-02     1     6     8     4
 6.7324083000e-03     1     6     8     5
-1.4649000000e-06     1     6     8     7
 8.1671526000e-03     1     6     8     8
-1.0358000000e-06     1     6     8     9
-6.8089903000e-03     1     6     9     1
-1.5577360000e-03     1     6     9     2
-8.7857198000e-03     1     6     9     3
-2.9447720000e-04     1     6     9     4
-1.6652650000e-04     1     6     9     5
 3.5500000000e-08     1     6     9     7
 2.0454000000e-06     1     6     9     8
 1.1133347100e-02     1     6     9     9
 3.1388900000e-05     1     7     2     1
 4.3764000000e-05     1     7     2     2
-1.2732960000e-04     1     7     2     3
-1.2803620400e-02     1     7     2     4
 3.1732555900e-02     1     7     2     5
 1.0297400000e-05     1     7     2     6
-1.5522000000e-06     1     7     2     8
-5.0588000000e-06     1     7     2     9
-2.4259950000e-04     1     7     3     1
-1.9955320000e-04     1     7     3     2
 1.9846300000e-05     1     7     3     3
 1.9779484000e-03     1     7     3     4
-4.9019166000e-03     1     7     3     5
-8.7261600000e-05     1     7     3     6
 3.8660000000e-07     1     7     3     8
 9.6972000000e-06     1     7     3     9
-2.3797427700e-02     1     7     4     1
-2.0098357000e-02     1     7     4     2
 1.7264439000e-03     1     7     4     3
 8.3308000000e-05     1     7     4     4
-1.1958240000e-04     1     7     4     5
-8.4753903000e-03     1     7     4     6
-1.7038700000e-05     1     7     4     8
-5.1580510000e-04     1     7     4     9
 5.8985815300e-02     1     7     5     1
 4.9822829400e-02     1     7     5     2
-4.2793907000e-03     1     7     5     3
-9.4941500000e-05     1     7     5     4
-1.5481030000e-04     1     7     5     5
 2.1008058400e-02     1     7     5     6
 1.0036000000e-06     1     7     5     8
 1.2802356000e-03     1     7     5     9
 1.6976100000e-05     1     7     6     1
 1.8372600000e-05     1     7     6     2
-2.6228400000e-05     1     7     6     3
-1.7370530000e-03     1     7     6     4
 4.3016403000e-03     1     7     6     5
-4.4286000000e-06     1     7     6     6
-5.2430000000e-07     1     7     6     8
-1.2349000000e-06     1     7     6     9
-3.7848229930e-01     1     7     7     1
-8.7641544000e-02     1     7     7     2
-4.6817760500e-02     1     7     7     3
-1.3720398000e-03     1     7     7     4
-6.7189930000e-04     1     7     7     5
-8.1693992000e-03     1     7     7     6
-9.6906000000e-06     1     7     7     8
-2.2443355000e-03     1     7     7     9
 5.4925000000e-06     1     7     8     1
 2.2649000000e-06     1     7     8     2
 2.3570000000e-07     1     7     8     3
-4.3083000000e-06     1     7     8     4
-1.6355400000e-05     1     7     8     5
 1.4649000000e-06     1     7     8     6
-7.8012000000e-06     1     7     8     8
 1.6780000000e-07     1     7     8     9
 1.0567500000e-05     1     7     9     1
 3.6337000000e-06     1     7     9     2
 1.2980600000e-05     1     7     9     3
 1.0816654000e-03     1     7     9     4
-2.6821438000e-03     1     7     9     5
-3.5500000000e-08     1     7     9     6
-2.6940000000e-07     1     7     9     8
-8.1841000000e-06     1     7     9     9
 4.9180700000e-05     1     8     2     1
-3.2327700000e-05     1     8     2     2
 1.2222806000e-03     1     8     2     3
-3.1715573900e-02     1     8     2     4
-1.2791047800e-02     1     8     2     5
-2.7095800000e-05     1     8     2     6
 1.5522000000e-06     1     8     2     7
-5.6388000000e-06     1     8     2     9
 2.2569391000e-03     1     8     3     1
 1.9095998000e-03     1     8     3     2
-3.4984640000e-04     1     8     3     3
 4.8928988000e-03     1     8     3     4
 1.9724908000e-03     1     8     3     5
 8.0082870000e-04     1     8     3     6
-3.8660000000e-07     1     8     3     7
 4.8245500000e-05     1     8     3     9
-5.8954977900e-02     1     8     4     1
-4.9793617000e-02     1     8     4     2
 4.2702281000e-03     1     8     4     3
 3.0368820000e-04     1     8     4     4
 1.2269600000e-04     1     8     4     5
-2.0995459300e-02     1     8     4     6
 1.7038700000e-05     1     8     4     7
-1.2788844000e-03     1     8     4     9
-2.3773686200e-02     1     8     5     1
-2.0079603800e-02     1     8     5     2
 1.7206323000e-03     1     8     5     3
 1.2473740000e-04     1     8     5     4
 9.6580700000e-05     1     8     5     5
-8.4679521000e-03     1     8     5     6
-1.0036000000e-06     1     8     5     7
-5.1618550000e-04     1     8     5     9
-2.0898400000e-05     1     8     6     1
-2.6492500000e-05     1     8     6     2
 1.7760760000e-04     1     8     6     3
-4.3006674000e-03     1     8     6     4
-1.7355438000e-03     1     8     6     5
 3.5371000000e-06     1     8     6     6
 5.2430000000e-07     1     8     6     7
-3.0812000000e-06     1     8     6     9
 5.4925000000e-06     1     8     7     1
 3.8171000000e-06     1     8     7     2
-1.5090000000e-07     1     8     7     3
 1.2730400000e-05     1     8     7     4
-1.7359000000e-05     1     8     7     5
 1.9892000000e-06     1     8     7     6
 9.6906000000e-06     1     8     7     7
 4.3720000000e-07     1     8     7     9
-3.7847859900e-01     1     8     8     1
-8.7640973200e-02     1     8     8     2
-4.6818066100e-02     1     8     8     3
-1.3359918000e-03     1     8     8     4
-6.8994610000e-04     1     8     8     5
-8.1671526000e-03     1     8     8     6
 7.8012000000e-06     1     8     8     7
-2.2431819000e-03     1     8     8     9
-2.4100000000e-06     1     8     9     1
-1.2046100000e-05     1     8     9     2
-6.8967800000e-05     1     8     9     3
 2.6799540000e-03     1     8     9     4
 1.0804958000e-03     1     8     9     5
-2.0454000000e-06     1     8     9     6
 2.6940000000e-07     1     8     9     7
 6.1324000000e-06     1     8     9     9
 1.7351049300e-02     1     9     2     1
-9.9591287000e-03     1     9     2     2
 3.3932718800e-02     1     9     2     3
 1.0864572000e-03     1     9     2     4
 5.8540880000e-04     1     9     2     5
-9.9334509000e-03     1     9     2     6
 5.0588000000e-06     1     9     2     7
 5.6388000000e-06     1     9     2     8
 6.1398417200e-02     1     9     3     1
 5.1880250500e-02     1     9     3     2
-1.0158676000e-03     1     9     3     3
-2.7696570000e-04     1     9     3     4
-1.4159330000e-04     1     9     3     5
 2.2694609900e-02     1     9     3     6
-9.6972000000e-06     1     9     3     7
-4.8245500000e-05     1     9     3     8
 1.9640393000e-03     1     9     4     1
 1.6619531000e-03     1     9     4     2
-2.7453110000e-04     1     9     4     3
 8.2355957000e-03     1     9     4     4
-3.8772000000e-06     1     9     4     5
 7.2920580000e-04     1     9     4     6
 5.1580510000e-04     1     9     4     7
 1.2788844000e-03     1     9     4     8
 1.0620518000e-03     1     9     5     1
 8.9639450000e-04     1     9     5     2
-1.3955790000e-04     1     9     5     3
-3.8549000000e-06     1     9     5     4
 8.2413064000e-03     1     9     5     5
 3.9239310000e-04     1     9     5     6
-1.2802356000e-03     1     9     5     7
 5.1618550000e-04     1     9     5     8
-6.8089903000e-03     1     9     6     1
-1.1491186900e-02     1     9     6     2
 1.3908890100e-02     1     9     6     3
 4.3472860000e-04     1     9     6     4
 2.2586660000e-04     1     9     6     5
-1.1818830000e-04     1     9     6     6
 1.2349000000e-06     1     9     6     7
 3.0812000000e-06     1     9     6     8
 1.0567500000e-05     1     9     7     1
 8.6925000000e-06     1     9     7     2
 3.2834000000e-06     1     9     7     3
 1.5974705000e-03     1     9     7     4
-3.9623794000e-03     1     9     7     5
 1.1994000000e-06     1     9     7     6
 2.2443355000e-03     1     9     7     7
-4.3720000000e-07     1     9     7     8
-2.4100000000e-06     1     9     8     1
-6.4073000000e-06     1     9     8     2
-1.1721330000e-04     1     9     8     3
 3.9588384000e-03     1     9     8     4
 1.5966813000e-03     1     9     8     5
 1.0358000000e-06     1     9     8     6
-1.6780000000e-07     1     9     8     7
 2.2431819000e-03     1     9     8     8
-4.0201265080e-01     1     9     9     1
-1.0145149410e-01     1     9     9     2
-4.8588595000e-02     1     9     9     3
-1.4584006000e-03     1     9     9     4
-7.4659940000e-04     1     9     9     5
-1.1133347100e-02     1     9     9     6
 8.1841000000e-06     1     9     9     7
-6.1324000000e-06     1     9     9     8
-2.9693166970e-01     2     1     1     2
 1.0430052100e-02     2     1     1     3
 3.0061760000e-04     2     1     1     4
 1.5286300000e-04     2     1     1     5
-8.5568688600e-02     2     1     1     6
 3.1388900000e-05     2     1     1     7
 4.9180700000e-05     2     1     1     8
 1.7351049300e-02     2     1     1     9
-4.1847242900e-02     2     1     3     2
 8.4046152100e-02     2     1     3     3
 7.7338200000e-05     2     1     3     4
 3.9352900000e-05     2     1     3     5
 3.2824625000e-03     2     1     3     6
 7.2223600000e-05     2     1     3     7
-6.8731920000e-04     2     1     3     8
-1.7947531700e-02     2     1     3     9
-1.2239171000e-03     2     1     4     2
 7.9976400000e-05     2     1     4     3
 8.1250183100e-02     2     1     4     4
 1.2241000000e-06     2     1     4     5
 1.0170550000e-04     2     1     4     6
 7.2947366000e-03     2     1     4     7
 1.8078043100e-02     2     1     4     8
-5.7549590000e-04     2     1     4     9
-6.2247490000e-04     2     1     5     2
 4.0705400000e-05     2     1     5     3
 1.2286000000e-06     2     1     5     4
 8.1238997300e-02     2     1     5     5
 3.9304400000e-05     2     1     5     6
-1.8090273500e-02     2     1     5     7
 7.2885560000e-03     2     1     5     8
-3.1098570000e-04     2     1     5     9
 5.5841157000e-02     2     1     6     2
 1.3624595100e-02     2     1     6     3
 4.1130780000e-04     2     1     6     4
 1.7539300000e-04     2     1     6     5
 9.0718878500e-02     2     1     6     6
-8.0752000000e-06     2     1     6     7
-6.0330000000e-07     2     1     6     8
 1.5577360000e-03     2     1     6     9
-4.3764000000e-05     2     1     7     2
 1.9955320000e-04     2     1     7     3
 2.0098357000e-02     2     1     7     4
-4.9822829400e-02     2     1     7     5
-1.8372600000e-05     2     1     7     6
 8.7641544000e-02     2     1     7     7
-2.2649000000e-06     2     1     7     8
-3.6337000000e-06     2     1     7     9
 3.2327700000e-05     2     1     8     2
-1.9095998000e-03     2     1     8     3
 4.9793617000e-02     2     1     8     4
 2.0079603800e-02     2     1     8     5
 2.6492500000e-05     2     1     8     6
-3.8171000000e-06     2     1     8     7
 8.7640973200e-02     2     1     8     8
 1.2046100000e-05     2     1     8     9
 9.9591287000e-03     2     1     9     2
-5.1880250500e-02     2     1     9     3
-1.6619531000e-03     2     1     9     4
-8.9639450000e-04     2     1     9     5
 1.1491186900e-02     2     1     9     6
-8.6925000000e-06     2     1     9     7
 6.4073000000e-06     2     1     9     8
 1.0145149410e-01     2     1     9     9
 2.9693166970e-01     2     2     1     1
 4.1847242900e-02     2     2     1     3
 1.2239171000e-03     2     2     1     4
 6.2247490000e-04     2     2     1     5
-5.5841157000e-02     2     2     1     6
 4.3764000000e-05     2     2     1     7
-3.2327700000e-05     2     2     1     8
-9.9591287000e-03     2     2     1     9
 4.1847242900e-02     2     2     3     1
 3.4634340850e-01     2     2     3     3
 1.5374590000e-04     2     2     3     4
 7.8202600000e-05     2     2     3     5
-2.9847100000e-03     2     2     3     6
 2.6437290000e-04     2     2     3     7
-2.4623840000e-03     2     2     3     8
-6.3715370100e-02     2     2     3     9
 1.2239171000e-03     2     2     4     1
 1.5374590000e-04     2     2     4     3
 3.4070315080e-01     2     2     4     4
 2.3270000000e-06     2     2     4     5
-8.1279600000e-05     2     2     4     6
 2.6107509400e-02     2     2     4     7
 6.4676975200e-02     2     2     4     8
-2.0468442000e-03     2     2     4     9
 6.2247490000e-04     2     2     5     1
 7.8202600000e-05     2     2     5     3
 2.3270000000e-06     2     2     5     4
 3.4067696140e-01     2     2     5     5
-8.4707600000e-05     2     2     5     6
-6.4716960600e-02     2     2     5     7
 2.6084229400e-02     2     2     5     8
-1.1101697000e-03     2     2     5     9
-5.5841157000e-02     2     2     6     1
-2.9847100000e-03     2     2     6     3
-8.1279600000e-05     2     2     6     4
-8.4707600000e-05     2     2     6     5
 3.0669678390e-01     2     2     6     6
 3.9030000000e-06     2     2     6     7
 8.7112000000e-06     2     2     6     8
 3.6823193000e-03     2     2     6     9
 4.3764000000e-05     2     2     7     1
 2.6437290000e-04     2     2     7     3
 2.6107509400e-02     2     2     7     4
-6.4716960600e-02     2     2     7     5
 3.9030000000e-06     2     2     7     6
 3.3297466490e-01     2     2     7     7
-6.1510000000e-06     2     2     7     8
-9.4391000000e-06     2     2     7     9
-3.2327700000e-05     2     2     8     1
-2.4623840000e-03     2     2     8     3
 6.4676975200e-02     2     2     8     4
 2.6084229400e-02     2     2     8     5
 8.7112000000e-06     2     2     8     6
-6.1510000000e-06     2     2     8     7
 3.3296844240e-01     2     2     8     8
 7.3862000000e-06     2     2     8     9
-9.9591287000e-03     2     2     9     1
-6.3715370100e-02     2     2     9     3
-2.0468442000e-03     2     2     9     4
-1.1101697000e-03     2     2     9     5
 3.6823193000e-03     2     2     9     6
-9.4391000000e-06     2     2     9     7
 7.3862000000e-06     2     2     9     8
 3.5372875990e-01     2     2     9     9
-1.0430052100e-02     2     3     1     1
-4.1847242900e-02     2     3     1     2
-2.6382000000e-06     2     3     1     4
-1.3525000000e-06     2     3     1     5
-1.0342132600e-02     2     3     1     6
-1.2732960000e-04     2     3     1     7
 1.2222806000e-03     2     3     1     8
 3.3932718800e-02     2     3     1     9