&FCI NORB=  9,NELEC=  2,MS2=0,
 ORBSYM=1,1,1,1,1,1,1,1,1
 ISYM=1,
&END
 3.2010285140e-01     1     1     2     2
 6.4601000000e-06     1     1     2     3
 2.9289200000e-05     1     1     2     4
 1.1567494000e-02     1     1     2     5
-9.5584619900e-02     1     1     2     6
 5.7717000000e-06     1     1     2     7
 9.0993900000e-05     1     1     2     8
 1.3216924000e-02     1     1     2     9
 6.4601000000e-06     1     1     3     2
 3.4935752570e-01     1     1     3     3
 1.9000000000e-08     1     1     3     4
 7.0139000000e-06     1     1     3     5
 3.4670000000e-05     1     1     3     6
-5.5807930600e-02     1     1     3     7
 4.4319391500e-02     1     1     3     8
-6.1947100000e-05     1     1     3     9
 2.9289200000e-05     1     1     4     2
 1.9000000000e-08     1     1     4     3
 3.4936086550e-01     1     1     4     4
 3.2886500000e-05     1     1     4     5
-6.4865200000e-05     1     1     4     6
-4.4318087000e-02     1     1     4     7
-5.5803433300e-02     1     1     4     8
-1.5656210000e-04     1     1     4     9
 1.1567494000e-02     1     1     5     2
 7.0139000000e-06     1     1     5     3
 3.2886500000e-05     1     1     5     4
 3.6577881140e-01     1     1     5     5
-5.8828675000e-03     1     1     5     6
 1.2310540000e-04     1     1     5     7
 8.5273800000e-05     1     1     5     8
-7.7749807700e-02     1     1     5     9
-9.5584619900e-02     1     1     6     2
 3.4670000000e-05     1     1     6     3
-6.4865200000e-05     1     1     6     4
-5.8828675000e-03     1     1     6     5
 4.1184585910e-01     1     1     6     6
 1.3800000000e-08     1     1     6     7
-7.6646000000e-06     1     1     6     8
-3.8661770000e-03     1     1     6     9
 5.7717000000e-06     1     1     7     2
-5.5807930600e-02     1     1     7     3
-4.4318087000e-02     1     1     7     4
 1.2310540000e-04     1     1     7     5
 1.3800000000e-08     1     1     7     6
 4.1518969150e-01     1     1     7     7
-2.6990000000e-07     1     1     7     8
 6.0033000000e-06     1     1     7     9
 9.0993900000e-05     1     1     8     2
 4.4319391500e-02     1     1     8     3
-5.5803433300e-02     1     1     8     4
 8.5273800000e-05     1     1     8     5
-7.6646000000e-06     1     1     8     6
-2.6990000000e-07     1     1     8     7
 4.1518882040e-01     1     1     8     8
 4.7632000000e-06     1     1     8     9
 1.3216924000e-02     1     1     9     2
-6.1947100000e-05     1     1     9     3
-1.5656210000e-04     1     1     9     4
-7.7749807700e-02     1     1     9     5
-3.8661770000e-03     1     1     9     6
 6.0033000000e-06     1     1     9     7
 4.7632000000e-06     1     1     9     8
 4.4406788310e-01     1     1     9     9
-3.2010285140e-01     1     2     2     1
 1.6145100000e-05     1     2     2     3
 7.5090200000e-05     1     2     2     4
 2.9072159800e-02     1     2     2     5
-5.9088462400e-02     1     2     2     6
-8.8100000000e-07     1     2     2     7
 4.9228200000e-05     1     2     2     8
-4.7659015000e-03     1     2     2     9
-6.4601000000e-06     1     2     3     1
 9.3363137300e-02     1     2     3     3
 4.4000000000e-09     1     2     3     4
 1.3020000000e-06     1     2     3     5
 3.2626100000e-05     1     2     3     6
-4.2382433000e-02     1     2     3     7
 3.3658141700e-02     1     2     3     8
-4.1579200000e-05     1     2     3     9
-2.9289200000e-05     1     2     4     1
 4.2000000000e-09     1     2     4     3
 9.3364416000e-02     1     2     4     4
 6.0217000000e-06     1     2     4     5
-2.0525100000e-05     1     2     4     6
-3.3657521800e-02     1     2     4     7
-4.2380644800e-02     1     2     4     8
-1.1115600000e-04     1     2     4     9
-1.1567494000e-02     1     2     5     1
 1.5125000000e-06     1     2     5     3
 7.2437000000e-06     1     2     5     4
 9.7453327100e-02     1     2     5     5
 6.3942462000e-03     1     2     5     6
 9.6239500000e-05     1     2     5     7
 5.7240400000e-05     1     2     5     8
-5.5788068600e-02     1     2     5     9
 9.5584619900e-02     1     2     6     1
 8.8507000000e-06     1     2     6     3
-7.3956000000e-06     1     2     6     4
 1.2636527000e-03     1     2     6     5
 1.0498066370e-01     1     2     6     6
 9.4480000000e-07     1     2     6     7
-4.7649000000e-06     1     2     6     8
 3.4717613000e-03     1     2     6     9
-5.7717000000e-06     1     2     7     1
-1.1749077300e-02     1     2     7     3
-9.3289045000e-03     1     2     7     4
 2.5915400000e-05     1     2     7     5
-1.4545000000e-06     1     2     7     6
 1.0488332720e-01     1     2     7     7
-7.2100000000e-07     1     2     7     8
 4.2122000000e-06     1     2     7     9
-9.0993900000e-05     1     2     8     1
 9.3293963000e-03     1     2     8     3
-1.1748219600e-02     1     2     8     4
 1.5721800000e-05     1     2     8     5
-8.4318000000e-06     1     2     8     6
 1.2980000000e-07     1     2     8     7
 1.0488257540e-01     1     2     8     8
-6.3900000000e-07     1     2     8     9
-1.3216924000e-02     1     2     9     1
-1.1357300000e-05     1     2     9     3
-3.1317200000e-05     1     2     9     4
-1.5638698800e-02     1     2     9     5
-2.9792303000e-03     1     2     9     6
 3.5763000000e-06     1     2     9     7
 4.2366000000e-06     1     2     9     8
 1.2556235050e-01     1     2     9     9
-6.4601000000e-06     1     3     2     1
-1.6145100000e-05     1     3     2     2
 2.0000000000e-10     1     3     2     4
-2.1050000000e-07     1     3     2     5
 2.3775400000e-05     1     3     2     6
-3.0633355700e-02     1     3     2     7
 2.4328745400e-02     1     3     2     8
-3.0221900000e-05     1     3     2     9
-3.4935752570e-01     1     3     3     1
-9.3363137300e-02     1     3     3     2
 7.1561100000e-05     1     3     3     4
 2.7868732200e-02     1     3     3     5
 1.5717709600e-02     1     3     3     6
-1.5032800000e-05     1     3     3     7
-9.3647000000e-06     1     3     3     8
 8.2911600000e-04     1     3     3     9
-1.9000000000e-08     1     3     4     1
-4.2000000000e-09     1     3     4     2
-1.5270300000e-05     1     3     4     4
-1.2100000000e-08     1     3     4     5
 1.4660000000e-07     1     3     4     6
-2.6008900000e-05     1     3     4     7
 1.5011000000e-05     1     3     4     8
 1.5516600000e-05     1     3     4     9
-7.0139000000e-06     1     3     5     1
-1.5125000000e-06     1     3     5     2
 2.0000000000e-10     1     3     5     4
-1.6040500000e-05     1     3     5     5
 1.6582300000e-05     1     3     5     6
-8.4388000000e-03     1     3     5     7
 6.7035557000e-03     1     3     5     8
 8.4838000000e-06     1     3     5     9
-3.4670000000e-05     1     3     6     1
-8.8507000000e-06     1     3     6     2
-3.0000000000e-10     1     3     6     4
-4.6610000000e-07     1     3     6     5
-6.2875000000e-06     1     3     6     6
 4.2645489000e-03     1     3     6     7
-3.3875252000e-03     1     3     6     8
 1.9836000000e-05     1     3     6     9
 5.5807930600e-02     1     3     7     1
 1.1749077300e-02     1     3     7     2
 2.5860000000e-07     1     3     7     4
 3.5805800000e-04     1     3     7     5
-1.4260694700e-02     1     3     7     6
-1.9068900000e-05     1     3     7     7
 1.0700600000e-05     1     3     7     8
-6.2055401000e-03     1     3     7     9
-4.4319391500e-02     1     3     8     1
-9.3293963000e-03     1     3     8     2
-3.2410000000e-07     1     3     8     4
-2.8396490000e-04     1     3     8     5
 1.1324923800e-02     1     3     8     6
-4.8813000000e-06     1     3     8     7
-2.0912200000e-05     1     3     8     8
 4.9242910000e-03     1     3     8     9
 6.1947100000e-05     1     3     9     1
 1.1357300000e-05     1     3     9     2
 3.0000000000e-10     1     3     9     4
-2.2820000000e-07     1     3     9     5
-2.6200000000e-06     1     3     9     6
-4.3989949000e-03     1     3     9     7
 3.4958545000e-03     1     3     9     8
-1.5564300000e-05     1     3     9     9
-2.9289200000e-05     1     4     2     1
-7.5090200000e-05     1     4     2     2
-2.0000000000e-10     1     4     2     3
-1.2220000000e-06     1     4     2     5
-1.3129500000e-05     1     4     2     6
-2.4328617300e-02     1     4     2     7
-3.0632425200e-02     1     4     2     8
-7.9838800000e-05     1     4     2     9
-1.9000000000e-08     1     4     3     1
-4.4000000000e-09     1     4     3     2
-7.1561100000e-05     1     4     3     3
-1.2300000000e-08     1     4     3     5
 1.4690000000e-07     1     4     3     6
-2.6267500000e-05     1     4     3     7
 1.5335100000e-05     1     4     3     8
 1.5516300000e-05     1     4     3     9
-3.4936086550e-01     1     4     4     1
-9.3364416000e-02     1     4     4     2
 1.5270300000e-05     1     4     4     3
 2.7868677200e-02     1     4     4     5
 1.5718664000e-02     1     4     4     6
-3.9321600000e-05     1     4     4     7
-5.8553100000e-05     1     4     4     8
 8.1953720000e-04     1     4     4     9
-3.2886500000e-05     1     4     5     1
-7.2437000000e-06     1     4     5     2
-2.0000000000e-10     1     4     5     3
-7.4941400000e-05     1     4     5     5
 3.7425200000e-05     1     4     5     6
-6.7043539000e-03     1     4     5     7
-8.4424839000e-03     1     4     5     8
 3.2221000000e-06     1     4     5     9
 6.4865200000e-05     1     4     6     1
 7.3956000000e-06     1     4     6     2
 3.0000000000e-10     1     4     6     3
-6.6010000000e-07     1     4     6     5
-8.2399500000e-05     1     4     6     6
 3.3878452000e-03     1     4     6     7
 4.2646338000e-03     1     4     6     8
 4.4371100000e-05     1     4     6     9
 4.4318087000e-02     1     4     7     1
 9.3289045000e-03     1     4     7     2
-2.5860000000e-07     1     4     7     3
 2.8393580000e-04     1     4     7     5
-1.1324424700e-02     1     4     7     6
-8.1479300000e-05     1     4     7     7
 8.7795000000e-06     1     4     7     8
-4.9283710000e-03     1     4     7     9
 5.5803433300e-02     1     4     8     1
 1.1748219600e-02     1     4     8     2
 3.2410000000e-07     1     4     8     3
 3.5806010000e-04     1     4     8     5
-1.4259889200e-02     1     4     8     6
-2.7847000000e-06     1     4     8     7
-7.3783500000e-05     1     4     8     8
-6.2009498000e-03     1     4     8     9
 1.5656210000e-04     1     4     9     1
 3.1317200000e-05     1     4     9     2
-3.0000000000e-10     1     4     9     3
-1.2730000000e-06     1     4     9     5
-1.4148600000e-05     1     4     9     6
-3.4931304000e-03     1     4     9     7
-4.4024868000e-03     1     4     9     8
-6.9318300000e-05     1     4     9     9
-1.1567494000e-02     1     5     2     1
-2.9072159800e-02     1     5     2     2
 2.1050000000e-07     1     5     2     3
 1.2220000000e-06     1     5     2     4
 5.1305935000e-03     1     5     2     6
 7.0324100000e-05     1     5     2     7
 4.1518600000e-05     1     5     2     8
-4.0149369800e-02     1     5     2     9
-7.0139000000e-06     1     5     3     1
-1.3020000000e-06     1     5     3     2
-2.7868732200e-02     1     5     3     3
 1.2300000000e-08     1     5     3     4
 1.7048400000e-05     1     5     3     6
-8.7968580000e-03     1     5     3     7
 6.9875206000e-03     1     5     3     8
 8.7120000000e-06     1     5     3     9
-3.2886500000e-05     1     5     4     1
-6.0217000000e-06     1     5     4     2
 1.2100000000e-08     1     5     4     3
-2.7868677200e-02     1     5     4     4
 3.8085300000e-05     1     5     4     6
-6.9882897000e-03     1     5     4     7
-8.8005440000e-03     1     5     4     8
 4.4951000000e-06     1     5     4     9
-3.6577881140e-01     1     5     5     1
-9.7453327100e-02     1     5     5     2
 1.6040500000e-05     1     5     5     3
 7.4941400000e-05     1     5     5     4
 3.3883703700e-02     1     5     5     6
 5.1352900000e-05     1     5     5     7
 7.9335000000e-06     1     5     5     8
 1.0159147000e-03     1     5     5     9
 5.8828675000e-03     1     5     6     1
-1.2636527000e-03     1     5     6     2
 4.6610000000e-07     1     5     6     3
 6.6010000000e-07     1     5     6     4
-2.7161017900e-02     1     5     6     6
-5.7605000000e-06     1     5     6     7
-3.7612000000e-06     1     5     6     8
 2.1861635500e-02     1     5     6     9
-1.2310540000e-04     1     5     7     1
-2.5915400000e-05     1     5     7     2
-3.5805800000e-04     1     5     7     3
-2.8393580000e-04     1     5     7     4
 3.2982700000e-05     1     5     7     6
-3.1121465200e-02     1     5     7     7
-3.1700000000e-07     1     5     7     8
 1.5528600000e-05     1     5     7     9
-8.5273800000e-05     1     5     8     1
-1.5721800000e-05     1     5     8     2
 2.8396490000e-04     1     5     8     3
-3.5806010000e-04     1     5     8     4
 2.0764000000e-05     1     5     8     6
 8.1600000000e-08     1     5     8     7
-3.1121622200e-02     1     5     8     8
-1.3764000000e-06     1     5     8     9
 7.7749807700e-02     1     5     9     1
 1.5638698800e-02     1     5     9     2
 2.2820000000e-07     1     5     9     3
 1.2730000000e-06     1     5     9     4
-6.8619136000e-03     1     5     9     6
 1.2230600000e-05     1     5     9     7
 1.7591800000e-05     1     5     9     8
-2.8144330400e-02     1     5     9     9
 9.5584619900e-02     1     6     2     1
 5.9088462400e-02     1     6     2     2
-2.3775400000e-05     1     6     2     3
 1.3129500000e-05     1     6     2     4
-5.1305935000e-03     1     6     2     5
 2.3993000000e-06     1     6     2     7
 3.6669000000e-06     1     6     2     8
 6.4509916000e-03     1     6     2     9
-3.4670000000e-05     1     6     3     1
-3.2626100000e-05     1     6     3     2
-1.5717709600e-02     1     6     3     3
-1.4690000000e-07     1     6     3     4
-1.7048400000e-05     1     6     3     5
 1.8525243600e-02     1     6     3     7
-1.4712449000e-02     1     6     3     8
 2.2456000000e-05     1     6     3     9
 6.4865200000e-05     1     6     4     1
 2.0525100000e-05     1     6     4     2
-1.4660000000e-07     1     6     4     3
-1.5718664000e-02     1     6     4     4
-3.8085300000e-05     1     6     4     5
 1.4712269900e-02     1     6     4     7
 1.8524523000e-02     1     6     4     8
 5.8519700000e-05     1     6     4     9
 5.8828675000e-03     1     6     5     1
-6.3942462000e-03     1     6     5     2
-1.6582300000e-05     1     6     5     3
-3.7425200000e-05     1     6     5     4
-3.3883703700e-02     1     6     5     5
-3.8743200000e-05     1     6     5     7
-2.4525200000e-05     1     6     5     8
 2.8723549100e-02     1     6     5     9
-4.1184585910e-01     1     6     6     1
-1.0498066370e-01     1     6     6     2
 6.2875000000e-06     1     6     6     3
 8.2399500000e-05     1     6     6     4
 2.7161017900e-02     1     6     6     5
-7.4270000000e-07     1     6     6     7
-8.7029000000e-06     1     6     6     8
 1.2674294000e-03     1     6     6     9
-1.3800000000e-08     1     6     7     1
 1.4545000000e-06     1     6     7     2
 1.4260694700e-02     1     6     7     3
 1.1324424700e-02     1     6     7     4
-3.2982700000e-05     1     6     7     5
-1.0182365300e-02     1     6     7     7
 5.6540000000e-07     1     6     7     8
-1.8781000000e-06     1     6     7     9
 7.6646000000e-06     1     6     8     1
 8.4318000000e-06     1     6     8     2
-1.1324923800e-02     1     6     8     3
 1.4259889200e-02     1     6     8     4
-2.0764000000e-05     1     6     8     5
 3.3310000000e-07     1     6     8     7
-1.0181876100e-02     1     6     8     8
 9.2620000000e-07     1     6     8     9
 3.8661770000e-03     1     6     9     1
 2.9792303000e-03     1     6     9     2
 2.6200000000e-06     1     6     9     3
 1.4148600000e-05     1     6     9     4
 6.8619136000e-03     1     6     9     5
-2.0430000000e-07     1     6     9     7
 4.5590000000e-07     1     6     9     8
-1.3241174800e-02     1     6     9     9
-5.7717000000e-06     1     7     2     1
 8.8100000000e-07     1     7     2     2
 3.0633355700e-02     1     7     2     3
 2.4328617300e-02     1     7     2     4
-7.0324100000e-05     1     7     2     5
-2.3993000000e-06     1     7     2     6
-8.5080000000e-07     1     7     2     8
 6.3590000000e-07     1     7     2     9
 5.5807930600e-02     1     7     3     1
 4.2382433000e-02     1     7     3     2
 1.5032800000e-05     1     7     3     3
 2.6267500000e-05     1     7     3     4
 8.7968580000e-03     1     7     3     5
-1.8525243600e-02     1     7     3     6
 1.5581900000e-05     1     7     3     8
-1.8065452000e-03     1     7     3     9
 4.4318087000e-02     1     7     4     1
 3.3657521800e-02     1     7     4     2
 2.6008900000e-05     1     7     4     3
 3.9321600000e-05     1     7     4     4
 6.9882897000e-03     1     7     4     5
-1.4712269900e-02     1     7     4     6
 1.1564200000e-05     1     7     4     8
-1.4352406000e-03     1     7     4     9
-1.2310540000e-04     1     7     5     1
-9.6239500000e-05     1     7     5     2
 8.4388000000e-03     1     7     5     3
 6.7043539000e-03     1     7     5     4
-5.1352900000e-05     1     7     5     5
 3.8743200000e-05     1     7     5     6
-3.9860000000e-07     1     7     5     8
 3.2980000000e-06     1     7     5     9
-1.3800000000e-08     1     7     6     1
-9.4480000000e-07     1     7     6     2
-4.2645489000e-03     1     7     6     3
-3.3878452000e-03     1     7     6     4
 5.7605000000e-06     1     7     6     5
 7.4270000000e-07     1     7     6     6
 2.3230000000e-07     1     7     6     8
-1.6738000000e-06     1     7     6     9
-4.1518969150e-01     1     7     7     1
-1.0488332720e-01     1     7     7     2
 1.9068900000e-05     1     7     7     3
 8.1479300000e-05     1     7     7     4
 3.1121465200e-02     1     7     7     5
 1.0182365300e-02     1     7     7     6
-1.0457000000e-05     1     7     7     8
 1.2814610000e-03     1     7     7     9
 2.6990000000e-07     1     7     8     1
-1.2980000000e-07     1     7     8     2
 4.8813000000e-06     1     7     8     3
 2.7847000000e-06     1     7     8     4
-8.1600000000e-08     1     7     8     5
-3.3310000000e-07     1     7     8     6
 1.6487000000e-06     1     7     8     8
-1.2300000000e-07     1     7     8     9
-6.0033000000e-06     1     7     9     1
-3.5763000000e-06     1     7     9     2
 4.3989949000e-03     1     7     9     3
 3.4931304000e-03     1     7     9     4
-1.2230600000e-05     1     7     9     5
 2.0430000000e-07     1     7     9     6
 1.4530000000e-07     1     7     9     8
 7.4880000000e-07     1     7     9     9
-9.0993900000e-05     1     8     2     1
-4.9228200000e-05     1     8     2     2
-2.4328745400e-02     1     8     2     3
 3.0632425200e-02     1     8     2     4
-4.1518600000e-05     1     8     2     5
-3.6669000000e-06     1     8     2     6
 8.5080000000e-07     1     8     2     7
-4.8756000000e-06     1     8     2     9
-4.4319391500e-02     1     8     3     1
-3.3658141700e-02     1     8     3     2
 9.3647000000e-06     1     8     3     3
-1.5335100000e-05     1     8     3     4
-6.9875206000e-03     1     8     3     5
 1.4712449000e-02     1     8     3     6
-1.5581900000e-05     1     8     3     7
 1.4284365000e-03     1     8     3     9
 5.5803433300e-02     1     8     4     1
 4.2380644800e-02     1     8     4     2
-1.5011000000e-05     1     8     4     3
 5.8553100000e-05     1     8     4     4
 8.8005440000e-03     1     8     4     5
-1.8524523000e-02     1     8     4     6
-1.1564200000e-05     1     8     4     7
-1.7984630000e-03     1     8     4     9
-8.5273800000e-05     1     8     5     1
-5.7240400000e-05     1     8     5     2
-6.7035557000e-03     1     8     5     3
 8.4424839000e-03     1     8     5     4
-7.9335000000e-06     1     8     5     5
 2.4525200000e-05     1     8     5     6
 3.9860000000e-07     1     8     5     7
-1.8968200000e-05     1     8     5     9
 7.6646000000e-06     1     8     6     1
 4.7649000000e-06     1     8     6     2
 3.3875252000e-03     1     8     6     3
-4.2646338000e-03     1     8     6     4
 3.7612000000e-06     1     8     6     5
 8.7029000000e-06     1     8     6     6
-2.3230000000e-07     1     8     6     7
 4.7030000000e-07     1     8     6     9
 2.6990000000e-07     1     8     7     1
 7.2100000000e-07     1     8     7     2
-1.0700600000e-05     1     8     7     3
-8.7795000000e-06     1     8     7     4
 3.1700000000e-07     1     8     7     5
-5.6540000000e-07     1     8     7     6
 1.0457000000e-05     1     8     7     7
-2.6830000000e-07     1     8     7     9
-4.1518882040e-01     1     8     8     1
-1.0488257540e-01     1     8     8     2
 2.0912200000e-05     1     8     8     3
 7.3783500000e-05     1     8     8     4
 3.1121622200e-02     1     8     8     5
 1.0181876100e-02     1     8     8     6
-1.6487000000e-06     1     8     8     7
 1.2792503000e-03     1     8     8     9
-4.7632000000e-06     1     8     9     1
-4.2366000000e-06     1     8     9     2
-3.4958545000e-03     1     8     9     3
 4.4024868000e-03     1     8     9     4
-1.7591800000e-05     1     8     9     5
-4.5590000000e-07     1     8     9     6
-1.4530000000e-07     1     8     9     7
 1.3957500000e-05     1     8     9     9
-1.3216924000e-02     1     9     2     1
 4.7659015000e-03     1     9     2     2
 3.0221900000e-05     1     9     2     3
 7.9838800000e-05     1     9     2     4
 4.0149369800e-02     1     9     2     5
-6.4509916000e-03     1     9     2     6
-6.3590000000e-07     1     9     2     7
 4.8756000000e-06     1     9     2     8
 6.1947100000e-05     1     9     3     1
 4.1579200000e-05     1     9     3     2
-8.2911600000e-04     1     9     3     3
-1.5516300000e-05     1     9     3     4
-8.7120000000e-06     1     9     3     5
-2.2456000000e-05     1     9     3     6
 1.8065452000e-03     1     9     3     7
-1.4284365000e-03     1     9     3     8
 1.5656210000e-04     1     9     4     1
 1.1115600000e-04     1     9     4     2
-1.5516600000e-05     1     9     4     3
-8.1953720000e-04     1     9     4     4
-4.4951000000e-06     1     9     4     5
-5.8519700000e-05     1     9     4     6
 1.4352406000e-03     1     9     4     7
 1.7984630000e-03     1     9     4     8
 7.7749807700e-02     1     9     5     1
 5.5788068600e-02     1     9     5     2
-8.4838000000e-06     1     9     5     3
-3.2221000000e-06     1     9     5     4
-1.0159147000e-03     1     9     5     5
-2.8723549100e-02     1     9     5     6
-3.2980000000e-06     1     9     5     7
 1.8968200000e-05     1     9     5     8
 3.8661770000e-03     1     9     6     1
-3.4717613000e-03     1     9     6     2
-1.9836000000e-05     1     9     6     3
-4.4371100000e-05     1     9     6     4
-2.1861635500e-02     1     9     6     5
-1.2674294000e-03     1     9     6     6
 1.6738000000e-06     1     9     6     7
-4.7030000000e-07     1     9     6     8
-6.0033000000e-06     1     9     7     1
-4.2122000000e-06     1     9     7     2
 6.2055401000e-03     1     9     7     3
 4.9283710000e-03     1     9     7     4
-1.5528600000e-05     1     9     7     5
 1.8781000000e-06     1     9     7     6
-1.2814610000e-03     1     9     7     7
 2.6830000000e-07     1     9     7     8
-4.7632000000e-06     1     9     8     1
 6.3900000000e-07     1     9     8     2
-4.9242910000e-03     1     9     8     3
 6.2009498000e-03     1     9     8     4
 1.3764000000e-06     1     9     8     5
-9.2620000000e-07     1     9     8     6
 1.2300000000e-07     1     9     8     7
-1.2792503000e-03     1     9     8     8
-4.4406788310e-01     1     9     9     1
-1.2556235050e-01     1     9     9     2
 1.5564300000e-05     1     9     9     3
 6.9318300000e-05     1     9     9     4
 2.8144330400e-02     1     9     9     5
 1.3241174800e-02     1     9     9     6
-7.4880000000e-07     1     9     9     7
-1.3957500000e-05     1     9     9     8
-3.2010285140e-01     2     1     1     2
-6.4601000000e-06     2     1     1     3
-2.9289200000e-05     2     1     1     4
-1.1567494000e-02     2     1     1     5
 9.5584619900e-02     2     1     1     6
-5.7717000000e-06     2     1     1     7
-9.0993900000e-05     2     1     1     8
-1.3216924000e-02     2     1     1     9
 1.6145100000e-05     2     1     3     2
 9.3363137300e-02     2     1     3     3
 4.2000000000e-09     2     1     3     4
 1.5125000000e-06     2     1     3     5
 8.8507000000e-06     2     1     3     6
-1.1749077300e-02     2     1     3     7
 9.3293963000e-03     2     1     3     8
-1.1357300000e-05     2     1     3     9
 7.5090200000e-05     2     1     4     2
 4.4000000000e-09     2     1     4     3
 9.3364416000e-02     2     1     4     4
 7.2437000000e-06     2     1     4     5
-7.3956000000e-06     2     1     4     6
-9.3289045000e-03     2     1     4     7
-1.1748219600e-02     2     1     4     8
-3.1317200000e-05     2     1     4     9
 2.9072159800e-02     2     1     5     2
 1.3020000000e-06     2     1     5     3
 6.0217000000e-06     2     1     5     4
 9.7453327100e-02     2     1     5     5
 1.2636527000e-03     2     1     5     6
 2.5915400000e-05     2     1     5     7
 1.5721800000e-05     2     1     5     8
-1.5638698800e-02     2     1     5     9
-5.9088462400e-02     2     1     6     2
 3.2626100000e-05     2     1     6     3
-2.0525100000e-05     2     1     6     4
 6.3942462000e-03     2     1     6     5
 1.0498066370e-01     2     1     6     6
-1.4545000000e-06     2     1     6     7
-8.4318000000e-06     2     1     6     8
-2.9792303000e-03     2     1     6     9
-8.8100000000e-07     2     1     7     2
-4.2382433000e-02     2     1     7     3
-3.3657521800e-02     2     1     7     4
 9.6239500000e-05     2     1     7     5
 9.4480000000e-07     2     1     7     6
 1.0488332720e-01     2     1     7     7
 1.2980000000e-07     2     1     7     8
 3.5763000000e-06     2     1     7     9
 4.9228200000e-05     2     1     8     2
 3.3658141700e-02     2     1     8     3
-4.2380644800e-02     2     1     8     4
 5.7240400000e-05     2     1     8     5
-4.7649000000e-06     2     1     8     6
-7.2100000000e-07     2     1     8     7
 1.0488257540e-01     2     1     8     8
 4.2366000000e-06     2     1     8     9
-4.7659015000e-03     2     1     9     2
-4.1579200000e-05     2     1     9     3
-1.1115600000e-04     2     1     9     4
-5.5788068600e-02     2     1     9     5
 3.4717613000e-03     2     1     9     6
 4.2122000000e-06     2     1     9     7
-6.3900000000e-07     2     1     9     8
 1.2556235050e-01     2     1     9     9
 3.2010285140e-01     2     2     1     1
-1.6145100000e-05     2     2     1     3
-7.5090200000e-05     2     2     1     4
-2.9072159800e-02     2     2     1     5
 5.9088462400e-02     2     2     1     6
 8.8100000000e-07     2     2     1     7
-4.9228200000e-05     2     2     1     8
 4.7659015000e-03     2     2     1     9
-1.6145100000e-05     2     2     3     1
 3.5972122930e-01     2     2     3     3
 1.9000000000e-08     2     2     3     4
 6.8765000000e-06     2     2     3     5
 4.2539900000e-05     2     2     3     6
-6.4532139800e-02     2     2     3     7
 5.1248284500e-02     2     2     3     8
-6.4816500000e-05     2     2     3     9
-7.5090200000e-05     2     2     4     1
 1.9000000000e-08     2     2     4     3
 3.5972501670e-01     2     2     4     4
 3.2264300000e-05     2     2     4     5
-6.4923800000e-05     2     2     4     6
-5.1246275700e-02     2     2     4     7
-6.4526684100e-02     2     2     4     8
-1.5573060000e-04     2     2     4     9
-2.9072159800e-02     2     2     5     1
 6.8765000000e-06     2     2     5     3
 3.2264300000e-05     2     2     5     4
 3.7634465580e-01     2     2     5     5
-2.5167404000e-03     2     2     5     6
 1.4242680000e-04     2     2     5     7
 9.7670400000e-05     2     2     5     8
-7.8907407700e-02     2     2     5     9
 5.9088462400e-02     2     2     6     1
 4.2539900000e-05     2     2     6     3
-6.4923800000e-05     2     2     6     4
-2.5167404000e-03     2     2     6     5
 3.2656389080e-01     2     2     6     6
 6.8030000000e-07     2     2     6     7
 1.9379500000e-05     2     2     6     8
-5.2638590000e-03     2     2     6     9
 8.8100000000e-07     2     2     7     1
-6.4532139800e-02     2     2     7     3
-5.1246275700e-02     2     2     7     4
 1.4242680000e-04     2     2     7     5
 6.8030000000e-07     2     2     7     6
 3.5955996680e-01     2     2     7     7
-9.8200000000e-08     2     2     7     8
 4.3385000000e-06     2     2     7     9
-4.9228200000e-05     2     2     8     1
 5.1248284500e-02     2     2     8     3
-6.4526684100e-02     2     2     8     4
 9.7670400000e-05     2     2     8     5
 1.9379500000e-05     2     2     8     6
-9.8200000000e-08     2     2     8     7
 3.5955988380e-01     2     2     8     8
 6.8886000000e-06     2     2     8     9
 4.7659015000e-03     2     2     9     1
-6.4816500000e-05     2     2     9     3
-1.5573060000e-04     2     2     9     4
-7.8907407700e-02     2     2     9     5
-5.2638590000e-03     2     2     9     6
 4.3385000000e-06     2     2     9     7
 6.8886000000e-06     2     2     9     8
 3.8193450950e-01     2     2     9     9
 6.4601000000e-06     2     3     1     1
 1.6145100000e-05     2     3     1     2
-2.0000000000e-10     2     3     1     4
 2.1050000000e-07     2     3     1     5
-2.3775400000e-05     2     3     1     6
 3.0633355700e-02     2     3     1     7
-2.4328745400e-02     2     3     1     8
 3.0221900000e-05     2     3     1     9