&FCI NORB=  9,NELEC=  2,MS2=0,
 ORBSYM=1,1,1,1,1,1,1,1,1
 ISYM=1,
&END
 2.6290306750e-01     1     1     2     2
-5.4526954000e-03     1     1     2     3
 9.8975400000e-05     1     1     2     4
 4.3162800000e-05     1     1     2     5
 7.3012282300e-02     1     1     2     6
 2.2798910000e-04     1     1     2     7
 2.3247330000e-04     1     1     2     8
-2.8456699200e-02     1     1     2     9
-5.4526954000e-03     1     1     3     2
 3.0899512820e-01     1     1     3     3
 3.9682000000e-06     1     1     3     4
 1.7593000000e-06     1     1     3     5
-3.2911089000e-03     1     1     3     6
-7.6872740000e-04     1     1     3     7
 9.2763390000e-04     1     1     3     8
-6.0418728900e-02     1     1     3     9
 9.8975400000e-05     1     1     4     2
 3.9682000000e-06     1     1     4     3
 3.1009876790e-01     1     1     4     4
-4.0900000000e-08     1     1     4     5
 6.5780900000e-05     1     1     4     6
-6.0816293000e-02     1     1     4     7
-4.4326224000e-03     1     1     4     8
 6.2640410000e-04     1     1     4     9
 4.3162800000e-05     1     1     5     2
 1.7593000000e-06     1     1     5     3
-4.0900000000e-08     1     1     5     4
 3.1010522080e-01     1     1     5     5
 3.3478300000e-05     1     1     5     6
-4.4208471000e-03     1     1     5     7
 6.0816624800e-02     1     1     5     8
 1.0053946000e-03     1     1     5     9
 7.3012282300e-02     1     1     6     2
-3.2911089000e-03     1     1     6     3
 6.5780900000e-05     1     1     6     4
 3.3478300000e-05     1     1     6     5
 3.5175065900e-01     1     1     6     6
-7.7069700000e-05     1     1     6     7
-8.1450200000e-05     1     1     6     8
 9.0745580000e-03     1     1     6     9
 2.2798910000e-04     1     1     7     2
-7.6872740000e-04     1     1     7     3
-6.0816293000e-02     1     1     7     4
-4.4208471000e-03     1     1     7     5
-7.7069700000e-05     1     1     7     6
 3.4473720630e-01     1     1     7     7
 4.5230000000e-07     1     1     7     8
-4.0115000000e-06     1     1     7     9
 2.3247330000e-04     1     1     8     2
 9.2763390000e-04     1     1     8     3
-4.4326224000e-03     1     1     8     4
 6.0816624800e-02     1     1     8     5
-8.1450200000e-05     1     1     8     6
 4.5230000000e-07     1     1     8     7
 3.4475924290e-01     1     1     8     8
-2.8497800000e-05     1     1     8     9
-2.8456699200e-02     1     1     9     2
-6.0418728900e-02     1     1     9     3
 6.2640410000e-04     1     1     9     4
 1.0053946000e-03     1     1     9     5
 9.0745580000e-03     1     1     9     6
-4.0115000000e-06     1     1     9     7
-2.8497800000e-05     1     1     9     8
 3.5557429970e-01     1     1     9     9
-2.6290306750e-01     1     2     2     1
 4.0247561600e-02     1     2     2     3
-7.8314450000e-04     1     2     2     4
-3.4392590000e-04     1     2     2     5
-5.1825664100e-02     1     2     2     6
-3.7641000000e-06     1     2     2     7
 1.0754800000e-05     1     2     2     8
-4.2793270000e-04     1     2     2     9
 5.4526954000e-03     1     2     3     1
-7.9327461100e-02     1     2     3     3
 5.8655100000e-05     1     2     3     4
 2.5810100000e-05     1     2     3     5
-9.1968060000e-03     1     2     3     6
 6.5357750000e-04     1     2     3     7
-8.1253910000e-04     1     2     3     8
 5.2521169300e-02     1     2     3     9
-9.8975400000e-05     1     2     4     1
 5.8460000000e-05     1     2     4     3
-7.6898512900e-02     1     2     4     4
-4.9960000000e-07     1     2     4     5
 1.7973160000e-04     1     2     4     6
 5.3059580300e-02     1     2     4     7
 3.8669747000e-03     1     2     4     8
-5.5776270000e-04     1     2     4     9
-4.3162800000e-05     1     2     5     1
 2.5696200000e-05     1     2     5     3
-4.9670000000e-07     1     2     5     4
-7.6900845000e-02     1     2     5     5
 7.5027300000e-05     1     2     5     6
 3.8570423000e-03     1     2     5     7
-5.3058513900e-02     1     2     5     8
-8.7204980000e-04     1     2     5     9
-7.3012282300e-02     1     2     6     1
-2.3003029000e-03     1     2     6     3
 4.4217300000e-05     1     2     6     4
 1.7514500000e-05     1     2     6     5
-8.3076646500e-02     1     2     6     6
 9.2956700000e-05     1     2     6     7
 9.6485900000e-05     1     2     6     8
-1.2109682300e-02     1     2     6     9
-2.2798910000e-04     1     2     7     1
 3.0966190000e-04     1     2     7     3
 2.4459837300e-02     1     2     7     4
 1.7774544000e-03     1     2     7     5
 1.6532700000e-05     1     2     7     6
-7.8043784500e-02     1     2     7     7
-2.9040000000e-07     1     2     7     8
-2.3409200000e-05     1     2     7     9
-2.3247330000e-04     1     2     8     1
-3.6509290000e-04     1     2     8     3
 1.7819650000e-03     1     2     8     4
-2.4458962200e-02     1     2     8     5
 1.5203500000e-05     1     2     8     6
 7.1900000000e-08     1     2     8     7
-7.8058734100e-02     1     2     8     8
 8.7205000000e-06     1     2     8     9
 2.8456699200e-02     1     2     9     1
 2.3078015600e-02     1     2     9     3
-2.3635260000e-04     1     2     9     4
-3.9199250000e-04     1     2     9     5
-2.2479488000e-03     1     2     9     6
-2.1225500000e-05     1     2     9     7
 9.0366000000e-06     1     2     9     8
-8.4246806600e-02     1     2     9     9
 5.4526954000e-03     1     3     2     1
-4.0247561600e-02     1     3     2     2
 1.9510000000e-07     1     3     2     4
 1.1390000000e-07     1     3     2     5
-6.8965031000e-03     1     3     2     6
 3.4391560000e-04     1     3     2     7
-4.4744620000e-04     1     3     2     8
 2.9443153700e-02     1     3     2     9
-3.0899512820e-01     1     3     3     1
 7.9327461100e-02     1     3     3     2
-8.6629080000e-04     1     3     3     4
-3.8072470000e-04     1     3     3     5
 2.3797907400e-02     1     3     3     6
-9.0279200000e-05     1     3     3     7
 2.1728900000e-05     1     3     3     8
 2.6521529000e-03     1     3     3     9
-3.9682000000e-06     1     3     4     1
-5.8460000000e-05     1     3     4     2
-4.4459742300e-02     1     3     4     4
 3.1000000000e-09     1     3     4     5
-6.0546700000e-05     1     3     4     6
-1.3061302000e-03     1     3     4     7
-9.6111800000e-05     1     3     4     8
 1.0925800000e-04     1     3     4     9
-1.7593000000e-06     1     3     5     1
-2.5696200000e-05     1     3     5     2
 2.5000000000e-09     1     3     5     4
-4.4460187600e-02     1     3     5     5
-2.6437100000e-05     1     3     5     6
-9.5134100000e-05     1     3     5     7
 1.3031517000e-03     1     3     5     8
 4.4861700000e-05     1     3     5     9
 3.2911089000e-03     1     3     6     1
 2.3003029000e-03     1     3     6     2
 1.8720000000e-07     1     3     6     4
-7.9000000000e-08     1     3     6     5
-4.5196932700e-02     1     3     6     6
 7.5826200000e-05     1     3     6     7
-1.3478640000e-04     1     3     6     8
 1.1140883800e-02     1     3     6     9
 7.6872740000e-04     1     3     7     1
-3.0966190000e-04     1     3     7     2
 1.6130474000e-03     1     3     7     4
 1.1750850000e-04     1     3     7     5
-2.1733530000e-04     1     3     7     6
-4.7660187000e-02     1     3     7     7
-3.0930000000e-07     1     3     7     8
 2.6240900000e-05     1     3     7     9
-9.2763390000e-04     1     3     8     1
 3.6509290000e-04     1     3     8     2
 1.1715630000e-04     1     3     8     4
-1.6126739000e-03     1     3     8     5
 2.0529880000e-04     1     3     8     6
 1.6590000000e-07     1     3     8     7
-4.7662315700e-02     1     3     8     8
-2.1151600000e-05     1     3     8     9
 6.0418728900e-02     1     3     9     1
-2.3078015600e-02     1     3     9     2
 1.5243200000e-05     1     3     9     4
-1.2721600000e-05     1     3     9     5
-1.0644861600e-02     1     3     9     6
-2.0059400000e-05     1     3     9     7
-4.2063000000e-06     1     3     9     8
-4.7415484600e-02     1     3     9     9
-9.8975400000e-05     1     4     2     1
 7.8314450000e-04     1     4     2     2
-1.9510000000e-07     1     4     2     3
-2.9000000000e-09     1     4     2     5
 1.3551430000e-04     1     4     2     6
 2.8599743000e-02     1     4     2     7
 2.0850097000e-03     1     4     2     8
-3.2141010000e-04     1     4     2     9
-3.9682000000e-06     1     4     3     1
-5.8655100000e-05     1     4     3     2
 8.6629080000e-04     1     4     3     3
 6.0000000000e-10     1     4     3     5
-6.0733900000e-05     1     4     3     6
-2.9191776000e-03     1     4     3     7
-2.1326810000e-04     1     4     3     8
 9.4014800000e-05     1     4     3     9
-3.1009876790e-01     1     4     4     1
 7.6898512900e-02     1     4     4     2
 4.4459742300e-02     1     4     4     3
-3.8048990000e-04     1     4     4     5
 2.1036015600e-02     1     4     4     6
 7.5310000000e-07     1     4     4     7
-6.1348300000e-05     1     4     4     8
 7.8040089000e-03     1     4     4     9
 4.0900000000e-08     1     4     5     1
 4.9670000000e-07     1     4     5     2
-2.5000000000e-09     1     4     5     3
 8.6575220000e-04     1     4     5     5
 5.1190000000e-07     1     4     5     6
 2.6545800000e-05     1     4     5     7
-2.2296200000e-05     1     4     5     8
-8.2750000000e-07     1     4     5     9
-6.5780900000e-05     1     4     6     1
-4.4217300000e-05     1     4     6     2
-1.8720000000e-07     1     4     6     3
 4.8000000000e-09     1     4     6     5
 8.8046410000e-04     1     4     6     6
 7.5616941000e-03     1     4     6     7
 5.5215360000e-04     1     4     6     8
-1.3347230000e-04     1     4     6     9
 6.0816293000e-02     1     4     7     1
-2.4459837300e-02     1     4     7     2
-1.6130474000e-03     1     4     7     3
 1.1923200000e-05     1     4     7     5
-1.5229957700e-02     1     4     7     6
 9.1323050000e-04     1     4     7     7
-8.2143000000e-06     1     4     7     8
 1.1140527000e-03     1     4     7     9
 4.4326224000e-03     1     4     8     1
-1.7819650000e-03     1     4     8     2
-1.1715630000e-04     1     4     8     3
 3.3579900000e-05     1     4     8     5
-1.1090456000e-03     1     4     8     6
 7.1962000000e-06     1     4     8     7
 9.2797100000e-04     1     4     8     8
 8.1303800000e-05     1     4     8     9
-6.2640410000e-04     1     4     9     1
 2.3635260000e-04     1     4     9     2
-1.5243200000e-05     1     4     9     3
 3.8960000000e-07     1     4     9     5
 8.3530700000e-05     1     4     9     6
-1.1108715000e-03     1     4     9     7
-8.0737400000e-05     1     4     9     8
 9.3974850000e-04     1     4     9     9
-4.3162800000e-05     1     5     2     1
 3.4392590000e-04     1     5     2     2
-1.1390000000e-07     1     5     2     3
 2.9000000000e-09     1     5     2     4
 5.7512800000e-05     1     5     2     6
 2.0795879000e-03     1     5     2     7
-2.8599551700e-02     1     5     2     8
-4.8005730000e-04     1     5     2     9
-1.7593000000e-06     1     5     3     1
-2.5810100000e-05     1     5     3     2
 3.8072470000e-04     1     5     3     3
-6.0000000000e-10     1     5     3     4
-2.6358100000e-05     1     5     3     6
-2.1264260000e-04     1     5     3     7
 2.9158256000e-03     1     5     3     8
 5.7583300000e-05     1     5     3     9
 4.0900000000e-08     1     5     4     1
 4.9960000000e-07     1     5     4     2
-3.1000000000e-09     1     5     4     3
 3.8048990000e-04     1     5     4     4
 5.0710000000e-07     1     5     4     6
 1.4622600000e-05     1     5     4     7
-5.5876100000e-05     1     5     4     8
-1.2171000000e-06     1     5     4     9
-3.1010522080e-01     1     5     5     1
 7.6900845000e-02     1     5     5     2
 4.4460187600e-02     1     5     5     3
-8.6575220000e-04     1     5     5     4
 2.1036894700e-02     1     5     5     6
-7.7994400000e-05     1     5     5     7
-1.0724190000e-04     1     5     5     8
 7.8051940000e-03     1     5     5     9
-3.3478300000e-05     1     5     6     1
-1.7514500000e-05     1     5     6     2
 7.9000000000e-08     1     5     6     3
-4.8000000000e-09     1     5     6     4
 3.8825560000e-04     1     5     6     6
 5.5017110000e-04     1     5     6     7
-7.5664163000e-03     1     5     6     8
-1.6951020000e-04     1     5     6     9
 4.4208471000e-03     1     5     7     1
-1.7774544000e-03     1     5     7     2
-1.1750850000e-04     1     5     7     3
-1.1923200000e-05     1     5     7     4
-1.1067428000e-03     1     5     7     6
 4.0761210000e-04     1     5     7     7
-8.8175000000e-06     1     5     7     8
 8.0879800000e-05     1     5     7     9
-6.0816624800e-02     1     5     8     1
 2.4458962200e-02     1     5     8     2
 1.6126739000e-03     1     5     8     3
-3.3579900000e-05     1     5     8     4
 1.5226357000e-02     1     5     8     6
 8.8799000000e-06     1     5     8     7
 4.0880540000e-04     1     5     8     8
-1.1147476000e-03     1     5     8     9
-1.0053946000e-03     1     5     9     1
 3.9199250000e-04     1     5     9     2
 1.2721600000e-05     1     5     9     3
-3.8960000000e-07     1     5     9     4
 2.0214350000e-04     1     5     9     6
-8.0527700000e-05     1     5     9     7
 1.1109400000e-03     1     5     9     8
 4.0669000000e-04     1     5     9     9
-7.3012282300e-02     1     6     2     1
 5.1825664100e-02     1     6     2     2
 6.8965031000e-03     1     6     2     3
-1.3551430000e-04     1     6     2     4
-5.7512800000e-05     1     6     2     5
 7.6424000000e-05     1     6     2     7
 8.1282400000e-05     1     6     2     8
-9.8617335000e-03     1     6     2     9
 3.2911089000e-03     1     6     3     1
 9.1968060000e-03     1     6     3     2
-2.3797907400e-02     1     6     3     3
 6.0733900000e-05     1     6     3     4
 2.6358100000e-05     1     6     3     5
 2.9316150000e-04     1     6     3     7
-3.4008520000e-04     1     6     3     8
 2.1785745400e-02     1     6     3     9
-6.5780900000e-05     1     6     4     1
-1.7973160000e-04     1     6     4     2
 6.0546700000e-05     1     6     4     3
-2.1036015600e-02     1     6     4     4
-5.0710000000e-07     1     6     4     5
 2.2791651800e-02     1     6     4     7
 1.6611992000e-03     1     6     4     8
-2.1700300000e-04     1     6     4     9
-3.3478300000e-05     1     6     5     1
-7.5027300000e-05     1     6     5     2
 2.6437100000e-05     1     6     5     3
-5.1190000000e-07     1     6     5     4
-2.1036894700e-02     1     6     5     5
 1.6569139000e-03     1     6     5     7
-2.2792773300e-02     1     6     5     8
-3.7165370000e-04     1     6     5     9
-3.5175065900e-01     1     6     6     1
 8.3076646500e-02     1     6     6     2
 4.5196932700e-02     1     6     6     3
-8.8046410000e-04     1     6     6     4
-3.8825560000e-04     1     6     6     5
-1.6219000000e-05     1     6     6     7
-7.3091000000e-06     1     6     6     8
 6.7885910000e-04     1     6     6     9
 7.7069700000e-05     1     6     7     1
-1.6532700000e-05     1     6     7     2
 2.1733530000e-04     1     6     7     3
 1.5229957700e-02     1     6     7     4
 1.1067428000e-03     1     6     7     5
-9.5082200000e-03     1     6     7     7
-1.9360000000e-07     1     6     7     8
-3.7335000000e-06     1     6     7     9
 8.1450200000e-05     1     6     8     1
-1.5203500000e-05     1     6     8     2
-2.0529880000e-04     1     6     8     3
 1.1090456000e-03     1     6     8     4
-1.5226357000e-02     1     6     8     5
-2.1000000000e-08     1     6     8     7
-9.5110437000e-03     1     6     8     8
 9.5661000000e-06     1     6     8     9
-9.0745580000e-03     1     6     9     1
 2.2479488000e-03     1     6     9     2
 1.0644861600e-02     1     6     9     3
-8.3530700000e-05     1     6     9     4
-2.0214350000e-04     1     6     9     5
-1.8112000000e-06     1     6     9     7
 1.0310600000e-05     1     6     9     8
-1.1993110700e-02     1     6     9     9
-2.2798910000e-04     1     7     2     1
 3.7641000000e-06     1     7     2     2
-3.4391560000e-04     1     7     2     3
-2.8599743000e-02     1     7     2     4
-2.0795879000e-03     1     7     2     5
-7.6424000000e-05     1     7     2     6
-3.6230000000e-07     1     7     2     8
-2.1837000000e-06     1     7     2     9
 7.6872740000e-04     1     7     3     1
-6.5357750000e-04     1     7     3     2
 9.0279200000e-05     1     7     3     3
 2.9191776000e-03     1     7     3     4
 2.1264260000e-04     1     7     3     5
-2.9316150000e-04     1     7     3     6
-4.7520000000e-07     1     7     3     8
 4.6300300000e-05     1     7     3     9
 6.0816293000e-02     1     7     4     1
-5.3059580300e-02     1     7     4     2
 1.3061302000e-03     1     7     4     3
-7.5310000000e-07     1     7     4     4
-1.4622600000e-05     1     7     4     5
-2.2791651800e-02     1     7     4     6
-1.5410500000e-05     1     7     4     8
 2.2249242000e-03     1     7     4     9
 4.4208471000e-03     1     7     5     1
-3.8570423000e-03     1     7     5     2
 9.5134100000e-05     1     7     5     3
-2.6545800000e-05     1     7     5     4
 7.7994400000e-05     1     7     5     5
-1.6569139000e-03     1     7     5     6
-1.7697400000e-05     1     7     5     8
 1.6140750000e-04     1     7     5     9
 7.7069700000e-05     1     7     6     1
-9.2956700000e-05     1     7     6     2
-7.5826200000e-05     1     7     6     3
-7.5616941000e-03     1     7     6     4
-5.5017110000e-04     1     7     6     5
 1.6219000000e-05     1     7     6     6
-1.7260000000e-07     1     7     6     8
-1.9223000000e-06     1     7     6     9
-3.4473720630e-01     1     7     7     1
 7.8043784500e-02     1     7     7     2
 4.7660187000e-02     1     7     7     3
-9.1323050000e-04     1     7     7     4
-4.0761210000e-04     1     7     7     5
 9.5082200000e-03     1     7     7     6
-3.0468100000e-05     1     7     7     8
 3.9289998000e-03     1     7     7     9
-4.5230000000e-07     1     7     8     1
-7.1900000000e-08     1     7     8     2
-1.6590000000e-07     1     7     8     3
-7.1962000000e-06     1     7     8     4
-8.8799000000e-06     1     7     8     5
 2.1000000000e-08     1     7     8     6
 4.0289100000e-05     1     7     8     8
-4.5900000000e-08     1     7     8     9
 4.0115000000e-06     1     7     9     1
 2.1225500000e-05     1     7     9     2
 2.0059400000e-05     1     7     9     3
 1.1108715000e-03     1     7     9     4
 8.0527700000e-05     1     7     9     5
 1.8112000000e-06     1     7     9     6
-4.1200000000e-08     1     7     9     8
 3.1927700000e-05     1     7     9     9
-2.3247330000e-04     1     8     2     1
-1.0754800000e-05     1     8     2     2
 4.4744620000e-04     1     8     2     3
-2.0850097000e-03     1     8     2     4
 2.8599551700e-02     1     8     2     5
-8.1282400000e-05     1     8     2     6
 3.6230000000e-07     1     8     2     7
-3.1610000000e-07     1     8     2     9
-9.2763390000e-04     1     8     3     1
 8.1253910000e-04     1     8     3     2
-2.1728900000e-05     1     8     3     3
 2.1326810000e-04     1     8     3     4
-2.9158256000e-03     1     8     3     5
 3.4008520000e-04     1     8     3     6
 4.7520000000e-07     1     8     3     7
-1.6945300000e-05     1     8     3     9
 4.4326224000e-03     1     8     4     1
-3.8669747000e-03     1     8     4     2
 9.6111800000e-05     1     8     4     3
 6.1348300000e-05     1     8     4     4
 5.5876100000e-05     1     8     4     5
-1.6611992000e-03     1     8     4     6
 1.5410500000e-05     1     8     4     7
 1.6204120000e-04     1     8     4     9
-6.0816624800e-02     1     8     5     1
 5.3058513900e-02     1     8     5     2
-1.3031517000e-03     1     8     5     3
 2.2296200000e-05     1     8     5     4
 1.0724190000e-04     1     8     5     5
 2.2792773300e-02     1     8     5     6
 1.7697400000e-05     1     8     5     7
-2.2256876000e-03     1     8     5     9
 8.1450200000e-05     1     8     6     1
-9.6485900000e-05     1     8     6     2
 1.3478640000e-04     1     8     6     3
-5.5215360000e-04     1     8     6     4
 7.5664163000e-03     1     8     6     5
 7.3091000000e-06     1     8     6     6
 1.7260000000e-07     1     8     6     7
-7.4450000000e-07     1     8     6     9
-4.5230000000e-07     1     8     7     1
 2.9040000000e-07     1     8     7     2
 3.0930000000e-07     1     8     7     3
 8.2143000000e-06     1     8     7     4
 8.8175000000e-06     1     8     7     5
 1.9360000000e-07     1     8     7     6
 3.0468100000e-05     1     8     7     7
-4.7000000000e-09     1     8     7     9
-3.4475924290e-01     1     8     8     1
 7.8058734100e-02     1     8     8     2
 4.7662315700e-02     1     8     8     3
-9.2797100000e-04     1     8     8     4
-4.0880540000e-04     1     8     8     5
 9.5110437000e-03     1     8     8     6
-4.0289100000e-05     1     8     8     7
 3.9269278000e-03     1     8     8     9
 2.8497800000e-05     1     8     9     1
-9.0366000000e-06     1     8     9     2
 4.2063000000e-06     1     8     9     3
 8.0737400000e-05     1     8     9     4
-1.1109400000e-03     1     8     9     5
-1.0310600000e-05     1     8     9     6
 4.1200000000e-08     1     8     9     7
 2.5139400000e-05     1     8     9     9
 2.8456699200e-02     1     9     2     1
 4.2793270000e-04     1     9     2     2
-2.9443153700e-02     1     9     2     3
 3.2141010000e-04     1     9     2     4
 4.8005730000e-04     1     9     2     5
 9.8617335000e-03     1     9     2     6
 2.1837000000e-06     1     9     2     7
 3.1610000000e-07     1     9     2     8
 6.0418728900e-02     1     9     3     1
-5.2521169300e-02     1     9     3     2
-2.6521529000e-03     1     9     3     3
-9.4014800000e-05     1     9     3     4
-5.7583300000e-05     1     9     3     5
-2.1785745400e-02     1     9     3     6
-4.6300300000e-05     1     9     3     7
 1.6945300000e-05     1     9     3     8
-6.2640410000e-04     1     9     4     1
 5.5776270000e-04     1     9     4     2
-1.0925800000e-04     1     9     4     3
-7.8040089000e-03     1     9     4     4
 1.2171000000e-06     1     9     4     5
 2.1700300000e-04     1     9     4     6
-2.2249242000e-03     1     9     4     7
-1.6204120000e-04     1     9     4     8
-1.0053946000e-03     1     9     5     1
 8.7204980000e-04     1     9     5     2
-4.4861700000e-05     1     9     5     3
 8.2750000000e-07     1     9     5     4
-7.8051940000e-03     1     9     5     5
 3.7165370000e-04     1     9     5     6
-1.6140750000e-04     1     9     5     7
 2.2256876000e-03     1     9     5     8
-9.0745580000e-03     1     9     6     1
 1.2109682300e-02     1     9     6     2
-1.1140883800e-02     1     9     6     3
 1.3347230000e-04     1     9     6     4
 1.6951020000e-04     1     9     6     5
-6.7885910000e-04     1     9     6     6
 1.9223000000e-06     1     9     6     7
 7.4450000000e-07     1     9     6     8
 4.0115000000e-06     1     9     7     1
 2.3409200000e-05     1     9     7     2
-2.6240900000e-05     1     9     7     3
-1.1140527000e-03     1     9     7     4
-8.0879800000e-05     1     9     7     5
 3.7335000000e-06     1     9     7     6
-3.9289998000e-03     1     9     7     7
 4.7000000000e-09     1     9     7     8
 2.8497800000e-05     1     9     8     1
-8.7205000000e-06     1     9     8     2
 2.1151600000e-05     1     9     8     3
-8.1303800000e-05     1     9     8     4
 1.1147476000e-03     1     9     8     5
-9.5661000000e-06     1     9     8     6
 4.5900000000e-08     1     9     8     7
-3.9269278000e-03     1     9     8     8
-3.5557429970e-01     1     9     9     1
 8.4246806600e-02     1     9     9     2
 4.7415484600e-02     1     9     9     3
-9.3974850000e-04     1     9     9     4
-4.0669000000e-04     1     9     9     5
 1.1993110700e-02     1     9     9     6
-3.1927700000e-05     1     9     9     7
-2.5139400000e-05     1     9     9     8
-2.6290306750e-01     2     1     1     2
 5.4526954000e-03     2     1     1     3
-9.8975400000e-05     2     1     1     4
-4.3162800000e-05     2     1     1     5
-7.3012282300e-02     2     1     1     6
-2.2798910000e-04     2     1     1     7
-2.3247330000e-04     2     1     1     8
 2.8456699200e-02     2     1     1     9
 4.0247561600e-02     2     1     3     2
-7.9327461100e-02     2     1     3     3
 5.8460000000e-05     2     1     3     4
 2.5696200000e-05     2     1     3     5
-2.3003029000e-03     2     1     3     6
 3.0966190000e-04     2     1     3     7
-3.6509290000e-04     2     1     3     8
 2.3078015600e-02     2     1     3     9
-7.8314450000e-04     2     1     4     2
 5.8655100000e-05     2     1     4     3
-7.6898512900e-02     2     1     4     4
-4.9670000000e-07     2     1     4     5
 4.4217300000e-05     2     1     4     6
 2.4459837300e-02     2     1     4     7
 1.7819650000e-03     2     1     4     8
-2.3635260000e-04     2     1     4     9
-3.4392590000e-04     2     1     5     2
 2.5810100000e-05     2     1     5     3
-4.9960000000e-07     2     1     5     4
-7.6900845000e-02     2     1     5     5
 1.7514500000e-05     2     1     5     6
 1.7774544000e-03     2     1     5     7
-2.4458962200e-02     2     1     5     8
-3.9199250000e-04     2     1     5     9
-5.1825664100e-02     2     1     6     2
-9.1968060000e-03     2     1     6     3
 1.7973160000e-04     2     1     6     4
 7.5027300000e-05     2     1     6     5
-8.3076646500e-02     2     1     6     6
 1.6532700000e-05     2     1     6     7
 1.5203500000e-05     2     1     6     8
-2.2479488000e-03     2     1     6     9
-3.7641000000e-06     2     1     7     2
 6.5357750000e-04     2     1     7     3
 5.3059580300e-02     2     1     7     4
 3.8570423000e-03     2     1     7     5
 9.2956700000e-05     2     1     7     6
-7.8043784500e-02     2     1     7     7
 7.1900000000e-08     2     1     7     8
-2.1225500000e-05     2     1     7     9
 1.0754800000e-05     2     1     8     2
-8.1253910000e-04     2     1     8     3
 3.8669747000e-03     2     1     8     4
-5.3058513900e-02     2     1     8     5
 9.6485900000e-05     2     1     8     6
-2.9040000000e-07     2     1     8     7
-7.8058734100e-02     2     1     8     8
 9.0366000000e-06     2     1     8     9
-4.2793270000e-04     2     1     9     2
 5.2521169300e-02     2     1     9     3
-5.5776270000e-04     2     1     9     4
-8.7204980000e-04     2     1     9     5
-1.2109682300e-02     2     1     9     6
-2.3409200000e-05     2     1     9     7
 8.7205000000e-06     2     1     9     8
-8.4246806600e-02     2     1     9     9
 2.6290306750e-01     2     2     1     1
-4.0247561600e-02     2     2     1     3
 7.8314450000e-04     2     2     1     4
 3.4392590000e-04     2     2     1     5
 5.1825664100e-02     2     2     1     6
 3.7641000000e-06     2     2     1     7
-1.0754800000e-05     2     2     1     8
 4.2793270000e-04     2     2     1     9
-4.0247561600e-02     2     2     3     1
 3.1404065780e-01     2     2     3     3
-2.4617300000e-05     2     2     3     4
-1.0761300000e-05     2     2     3     5
-1.2764779300e-02     2     2     3     6
-7.3690270000e-04     2     2     3     7
 8.3948140000e-04     2     2     3     8
-5.3578626400e-02     2     2     3     9
 7.8314450000e-04     2     2     4     1
-2.4617300000e-05     2     2     4     3
 3.1359750680e-01     2     2     4     4
 1.9880000000e-07     2     2     4     5
 2.5188900000e-04     2     2     4     6
-5.6004806200e-02     2     2     4     7
-4.0816804000e-03     2     2     4     8
 5.2539110000e-04     2     2     4     9
 3.4392590000e-04     2     2     5     1
-1.0761300000e-05     2     2     5     3
 1.9880000000e-07     2     2     5     4
 3.1360318040e-01     2     2     5     5
 1.1512530000e-04     2     2     5     6
-4.0708475000e-03     2     2     5     7
 5.6004171800e-02     2     2     5     8
 9.0590420000e-04     2     2     5     9
 5.1825664100e-02     2     2     6     1
-1.2764779300e-02     2     2     6     3
 2.5188900000e-04     2     2     6     4
 1.1512530000e-04     2     2     6     5
 2.8100941710e-01     2     2     6     6
-6.3884600000e-05     2     2     6     7
-6.8003200000e-05     2     2     6     8
 7.7369573000e-03     2     2     6     9
 3.7641000000e-06     2     2     7     1
-7.3690270000e-04     2     2     7     3
-5.6004806200e-02     2     2     7     4
-4.0708475000e-03     2     2     7     5
-6.3884600000e-05     2     2     7     6
 3.0018775390e-01     2     2     7     7
 4.4530000000e-07     2     2     7     8
-1.4173300000e-05     2     2     7     9
-1.0754800000e-05     2     2     8     1
 8.3948140000e-04     2     2     8     3
-4.0816804000e-03     2     2     8     4
 5.6004171800e-02     2     2     8     5
-6.8003200000e-05     2     2     8     6
 4.4530000000e-07     2     2     8     7
 3.0020384400e-01     2     2     8     8
-3.2060500000e-05     2     2     8     9
 4.2793270000e-04     2     2     9     1
-5.3578626400e-02     2     2     9     3
 5.2539110000e-04     2     2     9     4
 9.0590420000e-04     2     2     9     5
 7.7369573000e-03     2     2     9     6
-1.4173300000e-05     2     2     9     7
-3.2060500000e-05     2     2     9     8
 3.0958395020e-01     2     2     9     9
-5.4526954000e-03     2     3     1     1
 4.0247561600e-02     2     3     1     2
-1.9510000000e-07     2     3     1     4
-1.1390000000e-07     2     3     1     5
 6.8965031000e-03     2     3     1     6
-3.4391560000e-04     2     3     1     7
 4.4744620000e-04     2     3     1     8
-2.9443153700e-02     2     3     1     9