&FCI NORB=  9,NELEC=  2,MS2=0,
 ORBSYM=1,1,1,1,1,1,1,1,1
 ISYM=1,
&END
 3.2911101110e-01     1     1     2     2
 4.4808000000e-06     1     1     2     3
 5.7433000000e-06     1     1     2     4
-6.7113174000e-03     1     1     2     5
 9.9844960700e-02     1     1     2     6
-5.2406700000e-05     1     1     2     7
-5.6661800000e-05     1     1     2     8
 2.4284340900e-02     1     1     2     9
 4.4808000000e-06     1     1     3     2
 3.6201478430e-01     1     1     3     3
 1.0800000000e-08     1     1     3     4
-1.4400300000e-05     1     1     3     5
 6.4704100000e-05     1     1     3     6
 7.5233898200e-02     1     1     3     7
 2.2258897400e-02     1     1     3     8
-1.6128800000e-05     1     1     3     9
 5.7433000000e-06     1     1     4     2
 1.0800000000e-08     1     1     4     3
 3.6201529610e-01     1     1     4     4
-1.8210400000e-05     1     1     4     5
 3.8810800000e-05     1     1     4     6
-2.2248726900e-02     1     1     4     7
 7.5223627100e-02     1     1     4     8
-2.3553200000e-05     1     1     4     9
-6.7113174000e-03     1     1     5     2
-1.4400300000e-05     1     1     5     3
-1.8210400000e-05     1     1     5     4
 3.8904282040e-01     1     1     5     5
-1.5386724500e-02     1     1     5     6
 4.2580100000e-05     1     1     5     7
 6.6081000000e-05     1     1     5     8
 8.2777121600e-02     1     1     5     9
 9.9844960700e-02     1     1     6     2
 6.4704100000e-05     1     1     6     3
 3.8810800000e-05     1     1     6     4
-1.5386724500e-02     1     1     6     5
 4.3327574950e-01     1     1     6     6
-4.5114000000e-06     1     1     6     7
-1.3011000000e-06     1     1     6     8
 3.7376453000e-03     1     1     6     9
-5.2406700000e-05     1     1     7     2
 7.5233898200e-02     1     1     7     3
-2.2248726900e-02     1     1     7     4
 4.2580100000e-05     1     1     7     5
-4.5114000000e-06     1     1     7     6
 4.3609360110e-01     1     1     7     7
 8.6770000000e-07     1     1     7     8
-3.0634000000e-06     1     1     7     9
-5.6661800000e-05     1     1     8     2
 2.2258897400e-02     1     1     8     3
 7.5223627100e-02     1     1     8     4
 6.6081000000e-05     1     1     8     5
-1.3011000000e-06     1     1     8     6
 8.6770000000e-07     1     1     8     7
 4.3609000760e-01     1     1     8     8
 3.0371000000e-06     1     1     8     9
 2.4284340900e-02     1     1     9     2
-1.6128800000e-05     1     1     9     3
-2.3553200000e-05     1     1     9     4
 8.2777121600e-02     1     1     9     5
 3.7376453000e-03     1     1     9     6
-3.0634000000e-06     1     1     9     7
 3.0371000000e-06     1     1     9     8
 4.4513824710e-01     1     1     9     9
-3.2911101110e-01     1     2     2     1
 1.1179600000e-05     1     2     2     3
 1.3845000000e-05     1     2     2     4
-1.3848105800e-02     1     2     2     5
 6.0716186100e-02     1     2     2     6
-3.1138400000e-05     1     2     2     7
-3.2595500000e-05     1     2     2     8
 1.2124680500e-02     1     2     2     9
-4.4808000000e-06     1     2     3     1
 1.0055185760e-01     1     2     3     3
 1.1000000000e-09     1     2     3     4
-1.2509000000e-06     1     2     3     5
 4.0654300000e-05     1     2     3     6
 5.2536401100e-02     1     2     3     7
 1.5541608900e-02     1     2     3     8
-1.5890400000e-05     1     2     3     9
-5.7433000000e-06     1     2     4     1
-7.0000000000e-10     1     2     4     3
 1.0055204480e-01     1     2     4     4
-1.5856000000e-06     1     2     4     5
 2.1668000000e-05     1     2     4     6
-1.5536718500e-02     1     2     4     7
 5.2531267600e-02     1     2     4     8
-1.7124500000e-05     1     2     4     9
 6.7113174000e-03     1     2     5     1
-1.7259000000e-06     1     2     5     3
-2.3400000000e-06     1     2     5     4
 1.0618284310e-01     1     2     5     5
-5.3561097000e-03     1     2     5     6
 2.5326100000e-05     1     2     5     7
 4.5416300000e-05     1     2     5     8
 5.3470330100e-02     1     2     5     9
-9.9844960700e-02     1     2     6     1
 1.0526800000e-05     1     2     6     3
 5.8592000000e-06     1     2     6     4
-1.3724409000e-03     1     2     6     5
 1.1446712570e-01     1     2     6     6
-3.2995000000e-06     1     2     6     7
-1.7748000000e-06     1     2     6     8
 1.5026379000e-03     1     2     6     9
 5.2406700000e-05     1     2     7     1
 1.2791589800e-02     1     2     7     3
-3.7808824000e-03     1     2     7     4
 5.7452000000e-06     1     2     7     5
-4.0945000000e-06     1     2     7     6
 1.1444317150e-01     1     2     7     7
 1.8358000000e-06     1     2     7     8
-5.8720000000e-07     1     2     7     9
 5.6661800000e-05     1     2     8     1
 3.7819660000e-03     1     2     8     3
 1.2790452600e-02     1     2     8     4
 9.2645000000e-06     1     2     8     5
-2.9288000000e-06     1     2     8     6
 1.3380000000e-07     1     2     8     7
 1.1444058450e-01     1     2     8     8
 2.8959000000e-06     1     2     8     9
-2.4284340900e-02     1     2     9     1
-6.4963000000e-06     1     2     9     3
-7.1172000000e-06     1     2     9     4
 1.4982883500e-02     1     2     9     5
 2.1933063000e-03     1     2     9     6
-1.1061000000e-06     1     2     9     7
 2.4083000000e-06     1     2     9     8
 1.2283779210e-01     1     2     9     9
-4.4808000000e-06     1     3     2     1
-1.1179600000e-05     1     3     2     2
 1.8000000000e-09     1     3     2     4
 4.7500000000e-07     1     3     2     5
 3.0127500000e-05     1     3     2     6
 3.9744811300e-02     1     3     2     7
 1.1759642900e-02     1     3     2     8
-9.3941000000e-06     1     3     2     9
-3.6201478430e-01     1     3     3     1
-1.0055185760e-01     1     3     3     2
 1.2517200000e-05     1     3     3     4
-1.2468519800e-02     1     3     3     5
-1.7968764200e-02     1     3     3     6
 3.3644200000e-05     1     3     3     7
 2.3140200000e-05     1     3     3     8
-1.1186812800e-02     1     3     3     9
-1.0800000000e-08     1     3     4     1
 7.0000000000e-10     1     3     4     2
-1.0219600000e-05     1     3     4     4
 1.0000000000e-09     1     3     4     5
 7.6200000000e-08     1     3     4     6
 4.3365000000e-06     1     3     4     7
 1.4944900000e-05     1     3     4     8
-9.8232770000e-04     1     3     4     9
 1.4400300000e-05     1     3     5     1
 1.7259000000e-06     1     3     5     2
-9.0000000000e-10     1     3     5     4
-1.2542900000e-05     1     3     5     5
 3.9798000000e-06     1     3     5     6
-1.3476325600e-02     1     3     5     7
-3.9762203000e-03     1     3     5     8
 1.7450600000e-05     1     3     5     9
-6.4704100000e-05     1     3     6     1
-1.0526800000e-05     1     3     6     2
-1.5000000000e-09     1     3     6     4
-1.9900000000e-08     1     3     6     5
-2.0514200000e-05     1     3     6     6
 6.8353828000e-03     1     3     6     7
 2.0237072000e-03     1     3     6     8
-1.0874400000e-05     1     3     6     9
-7.5233898200e-02     1     3     7     1
-1.2791589800e-02     1     3     7     2
 1.7690000000e-07     1     3     7     4
 5.4705260000e-04     1     3     7     5
-1.7847038900e-02     1     3     7     6
-7.7566000000e-06     1     3     7     7
 8.2201000000e-06     1     3     7     8
 1.5768674000e-03     1     3     7     9
-2.2258897400e-02     1     3     8     1
-3.7819660000e-03     1     3     8     2
-1.1170000000e-07     1     3     8     4
 1.6134010000e-04     1     3     8     5
-5.2783380000e-03     1     3     8     6
-2.6444000000e-06     1     3     8     7
-1.2012600000e-05     1     3     8     8
 2.2471340000e-04     1     3     8     9
 1.6128800000e-05     1     3     9     1
 6.4963000000e-06     1     3     9     2
 3.3999999999e-09     1     3     9     4
 2.1058000000e-06     1     3     9     5
 5.3262000000e-06     1     3     9     6
 4.4927429000e-03     1     3     9     7
 1.4832490000e-03     1     3     9     8
-1.4509300000e-05     1     3     9     9
-5.7433000000e-06     1     4     2     1
-1.3845000000e-05     1     4     2     2
-1.8000000000e-09     1     4     2     3
 7.5440000000e-07     1     4     2     5
 1.5808800000e-05     1     4     2     6
-1.1755836100e-02     1     4     2     7
 3.9740815000e-02     1     4     2     8
-1.0007300000e-05     1     4     2     9
-1.0800000000e-08     1     4     3     1
-1.1000000000e-09     1     4     3     2
-1.2517200000e-05     1     4     3     3
 1.9000000000e-09     1     4     3     5
 7.7700000000e-08     1     4     3     6
 4.1596000000e-06     1     4     3     7
 1.5056600000e-05     1     4     3     8
-9.8233110000e-04     1     4     3     9
-3.6201529610e-01     1     4     4     1
-1.0055204480e-01     1     4     4     2
 1.0219600000e-05     1     4     4     3
-1.2468481900e-02     1     4     4     5
-1.7969193300e-02     1     4     4     6
-5.6904000000e-06     1     4     4     7
 4.0452000000e-05     1     4     4     8
-1.0604175100e-02     1     4     4     9
 1.8210400000e-05     1     4     5     1
 2.3400000000e-06     1     4     5     2
 9.0000000000e-10     1     4     5     3
-1.5233600000e-05     1     4     5     5
 1.2352900000e-05     1     4     5     6
 3.9874899000e-03     1     4     5     7
-1.3487615200e-02     1     4     5     8
-7.3437000000e-06     1     4     5     9
-3.8810800000e-05     1     4     6     1
-5.8592000000e-06     1     4     6     2
 1.5000000000e-09     1     4     6     3
-4.4970000000e-07     1     4     6     5
-1.7410800000e-05     1     4     6     6
-2.0233603000e-03     1     4     6     7
 6.8343960000e-03     1     4     6     8
-1.2571000000e-05     1     4     6     9
 2.2248726900e-02     1     4     7     1
 3.7808824000e-03     1     4     7     2
-1.7690000000e-07     1     4     7     3
-1.6104400000e-04     1     4     7     5
 5.2772112000e-03     1     4     7     6
-1.6297100000e-05     1     4     7     7
-5.3289000000e-06     1     4     7     8
-7.0668210000e-04     1     4     7     9
-7.5223627100e-02     1     4     8     1
-1.2790452600e-02     1     4     8     2
 1.1170000000e-07     1     4     8     3
 5.4677340000e-04     1     4     8     5
-1.7846311400e-02     1     4     8     6
 7.5101000000e-06     1     4     8     7
-1.1028600000e-05     1     4     8     8
 1.5940389000e-03     1     4     8     9
 2.3553200000e-05     1     4     9     1
 7.1172000000e-06     1     4     9     2
-3.3999999999e-09     1     4     9     3
 1.7091000000e-06     1     4     9     5
 2.6977000000e-06     1     4     9     6
-1.1768134000e-03     1     4     9     7
 4.5106617000e-03     1     4     9     8
-1.2497200000e-05     1     4     9     9
 6.7113174000e-03     1     5     2     1
 1.3848105800e-02     1     5     2     2
-4.7500000000e-07     1     5     2     3
-7.5440000000e-07     1     5     2     4
-3.9836688000e-03     1     5     2     6
 1.9580900000e-05     1     5     2     7
 3.6151800000e-05     1     5     2     8
 3.8487446600e-02     1     5     2     9
 1.4400300000e-05     1     5     3     1
 1.2509000000e-06     1     5     3     2
 1.2468519800e-02     1     5     3     3
-1.9000000000e-09     1     5     3     4
 3.9997000000e-06     1     5     3     6
-1.4023378200e-02     1     5     3     7
-4.1375604000e-03     1     5     3     8
 1.5344800000e-05     1     5     3     9
 1.8210400000e-05     1     5     4     1
 1.5856000000e-06     1     5     4     2
-1.0000000000e-09     1     5     4     3
 1.2468481900e-02     1     5     4     4
 1.2802600000e-05     1     5     4     6
 4.1485339000e-03     1     5     4     7
-1.4034388600e-02     1     5     4     8
-9.0528000000e-06     1     5     4     9
-3.8904282040e-01     1     5     5     1
-1.0618284310e-01     1     5     5     2
 1.2542900000e-05     1     5     5     3
 1.5233600000e-05     1     5     5     4
-3.5344982900e-02     1     5     5     6
 1.4628700000e-05     1     5     5     7
-2.7341700000e-05     1     5     5     8
 1.7296279000e-02     1     5     5     9
 1.5386724500e-02     1     5     6     1
 1.3724409000e-03     1     5     6     2
 1.9900000000e-08     1     5     6     3
 4.4970000000e-07     1     5     6     4
 1.1837627800e-02     1     5     6     6
 3.4420000000e-06     1     5     6     7
 2.5648000000e-06     1     5     6     8
 2.0029365600e-02     1     5     6     9
-4.2580100000e-05     1     5     7     1
-5.7452000000e-06     1     5     7     2
-5.4705260000e-04     1     5     7     3
 1.6104400000e-04     1     5     7     4
-5.6652000000e-06     1     5     7     6
 1.4796749000e-02     1     5     7     7
 2.0591000000e-06     1     5     7     8
-1.0557000000e-06     1     5     7     9
-6.6081000000e-05     1     5     8     1
-9.2645000000e-06     1     5     8     2
-1.6134010000e-04     1     5     8     3
-5.4677340000e-04     1     5     8     4
-1.3557100000e-05     1     5     8     6
-2.1246000000e-06     1     5     8     7
 1.4797144300e-02     1     5     8     8
 5.1557000000e-06     1     5     8     9
-8.2777121600e-02     1     5     9     1
-1.4982883500e-02     1     5     9     2
-2.1058000000e-06     1     5     9     3
-1.7091000000e-06     1     5     9     4
-8.5745545000e-03     1     5     9     6
 5.5649000000e-06     1     5     9     7
 7.8143000000e-06     1     5     9     8
 1.1666931400e-02     1     5     9     9
-9.9844960700e-02     1     6     2     1
-6.0716186100e-02     1     6     2     2
-3.0127500000e-05     1     6     2     3
-1.5808800000e-05     1     6     2     4
 3.9836688000e-03     1     6     2     5
 7.9500000000e-07     1     6     2     7
 1.1540000000e-06     1     6     2     8
-6.9066840000e-04     1     6     2     9
-6.4704100000e-05     1     6     3     1
-4.0654300000e-05     1     6     3     2
 1.7968764200e-02     1     6     3     3
-7.7700000000e-08     1     6     3     4
-3.9997000000e-06     1     6     3     5
 2.4682421700e-02     1     6     3     7
 7.3020452000e-03     1     6     3     8
-1.6200600000e-05     1     6     3     9
-3.8810800000e-05     1     6     4     1
-2.1668000000e-05     1     6     4     2
-7.6200000000e-08     1     6     4     3
 1.7969193300e-02     1     6     4     4
-1.2802600000e-05     1     6     4     5
-7.3005715000e-03     1     6     4     7
 2.4680707400e-02     1     6     4     8
-1.5268700000e-05     1     6     4     9
 1.5386724500e-02     1     6     5     1
 5.3561097000e-03     1     6     5     2
-3.9798000000e-06     1     6     5     3
-1.2352900000e-05     1     6     5     4
 3.5344982900e-02     1     6     5     5
 9.1072000000e-06     1     6     5     7
 1.6121900000e-05     1     6     5     8
 2.8603920100e-02     1     6     5     9
-4.3327574950e-01     1     6     6     1
-1.1446712570e-01     1     6     6     2
 2.0514200000e-05     1     6     6     3
 1.7410800000e-05     1     6     6     4
-1.1837627800e-02     1     6     6     5
 7.3899000000e-06     1     6     6     7
 5.0645000000e-06     1     6     6     8
 3.6820331000e-03     1     6     6     9
 4.5114000000e-06     1     6     7     1
 4.0945000000e-06     1     6     7     2
 1.7847038900e-02     1     6     7     3
-5.2772112000e-03     1     6     7     4
 5.6652000000e-06     1     6     7     5
 1.1935018500e-02     1     6     7     7
 1.2985000000e-06     1     6     7     8
-9.1100000000e-08     1     6     7     9
 1.3011000000e-06     1     6     8     1
 2.9288000000e-06     1     6     8     2
 5.2783380000e-03     1     6     8     3
 1.7846311400e-02     1     6     8     4
 1.3557100000e-05     1     6     8     5
-6.1400000000e-08     1     6     8     7
 1.1933921600e-02     1     6     8     8
 1.7453000000e-06     1     6     8     9
-3.7376453000e-03     1     6     9     1
-2.1933063000e-03     1     6     9     2
-5.3262000000e-06     1     6     9     3
-2.6977000000e-06     1     6     9     4
 8.5745545000e-03     1     6     9     5
-6.9270000000e-07     1     6     9     7
 1.2264000000e-06     1     6     9     8
 1.0931389000e-02     1     6     9     9
 5.2406700000e-05     1     7     2     1
 3.1138400000e-05     1     7     2     2
-3.9744811300e-02     1     7     2     3
 1.1755836100e-02     1     7     2     4
-1.9580900000e-05     1     7     2     5
-7.9500000000e-07     1     7     2     6
 1.7020000000e-06     1     7     2     8
 5.1890000000e-07     1     7     2     9
-7.5233898200e-02     1     7     3     1
-5.2536401100e-02     1     7     3     2
-3.3644200000e-05     1     7     3     3
-4.1596000000e-06     1     7     3     4
 1.4023378200e-02     1     7     3     5
-2.4682421700e-02     1     7     3     6
 1.0864500000e-05     1     7     3     8
-2.9158755000e-03     1     7     3     9
 2.2248726900e-02     1     7     4     1
 1.5536718500e-02     1     7     4     2
-4.3365000000e-06     1     7     4     3
 5.6904000000e-06     1     7     4     4
-4.1485339000e-03     1     7     4     5
 7.3005715000e-03     1     7     4     6
-1.2839000000e-05     1     7     4     8
 4.7013130000e-04     1     7     4     9
-4.2580100000e-05     1     7     5     1
-2.5326100000e-05     1     7     5     2
 1.3476325600e-02     1     7     5     3
-3.9874899000e-03     1     7     5     4
-1.4628700000e-05     1     7     5     5
-9.1072000000e-06     1     7     5     6
 4.1837000000e-06     1     7     5     8
-6.6206000000e-06     1     7     5     9
 4.5114000000e-06     1     7     6     1
 3.2995000000e-06     1     7     6     2
-6.8353828000e-03     1     7     6     3
 2.0233603000e-03     1     7     6     4
-3.4420000000e-06     1     7     6     5
-7.3899000000e-06     1     7     6     6
 1.3599000000e-06     1     7     6     8
 6.0160000000e-07     1     7     6     9
-4.3609360110e-01     1     7     7     1
-1.1444317150e-01     1     7     7     2
 7.7566000000e-06     1     7     7     3
 1.6297100000e-05     1     7     7     4
-1.4796749000e-02     1     7     7     5
-1.1935018500e-02     1     7     7     6
 6.0980000000e-06     1     7     7     8
 1.3824587000e-03     1     7     7     9
-8.6770000000e-07     1     7     8     1
-1.3380000000e-07     1     7     8     2
 2.6444000000e-06     1     7     8     3
-7.5101000000e-06     1     7     8     4
 2.1246000000e-06     1     7     8     5
 6.1400000000e-08     1     7     8     6
-7.0848000000e-06     1     7     8     8
-5.3493200000e-05     1     7     8     9
 3.0634000000e-06     1     7     9     1
 1.1061000000e-06     1     7     9     2
-4.4927429000e-03     1     7     9     3
 1.1768134000e-03     1     7     9     4
-5.5649000000e-06     1     7     9     5
 6.9270000000e-07     1     7     9     6
-1.2736000000e-06     1     7     9     8
-8.7795000000e-06     1     7     9     9
 5.6661800000e-05     1     8     2     1
 3.2595500000e-05     1     8     2     2
-1.1759642900e-02     1     8     2     3
-3.9740815000e-02     1     8     2     4
-3.6151800000e-05     1     8     2     5
-1.1540000000e-06     1     8     2     6
-1.7020000000e-06     1     8     2     7
 4.8760000000e-07     1     8     2     9
-2.2258897400e-02     1     8     3     1
-1.5541608900e-02     1     8     3     2
-2.3140200000e-05     1     8     3     3
-1.5056600000e-05     1     8     3     4
 4.1375604000e-03     1     8     3     5
-7.3020452000e-03     1     8     3     6
-1.0864500000e-05     1     8     3     7
-1.2585356000e-03     1     8     3     9
-7.5223627100e-02     1     8     4     1
-5.2531267600e-02     1     8     4     2
-1.4944900000e-05     1     8     4     3
-4.0452000000e-05     1     8     4     4
 1.4034388600e-02     1     8     4     5
-2.4680707400e-02     1     8     4     6
 1.2839000000e-05     1     8     4     7
-2.9166228000e-03     1     8     4     9
-6.6081000000e-05     1     8     5     1
-4.5416300000e-05     1     8     5     2
 3.9762203000e-03     1     8     5     3
 1.3487615200e-02     1     8     5     4
 2.7341700000e-05     1     8     5     5
-1.6121900000e-05     1     8     5     6
-4.1837000000e-06     1     8     5     7
-2.6586000000e-06     1     8     5     9
 1.3011000000e-06     1     8     6     1
 1.7748000000e-06     1     8     6     2
-2.0237072000e-03     1     8     6     3
-6.8343960000e-03     1     8     6     4
-2.5648000000e-06     1     8     6     5
-5.0645000000e-06     1     8     6     6
-1.3599000000e-06     1     8     6     7
 5.1890000000e-07     1     8     6     9
-8.6770000000e-07     1     8     7     1
-1.8358000000e-06     1     8     7     2
-8.2201000000e-06     1     8     7     3
 5.3289000000e-06     1     8     7     4
-2.0591000000e-06     1     8     7     5
-1.2985000000e-06     1     8     7     6
-6.0980000000e-06     1     8     7     7
-5.2219600000e-05     1     8     7     9
-4.3609000760e-01     1     8     8     1
-1.1444058450e-01     1     8     8     2
 1.2012600000e-05     1     8     8     3
 1.1028600000e-05     1     8     8     4
-1.4797144300e-02     1     8     8     5
-1.1933921600e-02     1     8     8     6
 7.0848000000e-06     1     8     8     7
 1.3552976000e-03     1     8     8     9
-3.0371000000e-06     1     8     9     1
-2.4083000000e-06     1     8     9     2
-1.4832490000e-03     1     8     9     3
-4.5106617000e-03     1     8     9     4
-7.8143000000e-06     1     8     9     5
-1.2264000000e-06     1     8     9     6
 1.2736000000e-06     1     8     9     7
-6.8603000000e-06     1     8     9     9
-2.4284340900e-02     1     9     2     1
-1.2124680500e-02     1     9     2     2
 9.3941000000e-06     1     9     2     3
 1.0007300000e-05     1     9     2     4
-3.8487446600e-02     1     9     2     5
 6.9066840000e-04     1     9     2     6
-5.1890000000e-07     1     9     2     7
-4.8760000000e-07     1     9     2     8
 1.6128800000e-05     1     9     3     1
 1.5890400000e-05     1     9     3     2
 1.1186812800e-02     1     9     3     3
 9.8233110000e-04     1     9     3     4
-1.5344800000e-05     1     9     3     5
 1.6200600000e-05     1     9     3     6
 2.9158755000e-03     1     9     3     7
 1.2585356000e-03     1     9     3     8
 2.3553200000e-05     1     9     4     1
 1.7124500000e-05     1     9     4     2
 9.8232770000e-04     1     9     4     3
 1.0604175100e-02     1     9     4     4
 9.0528000000e-06     1     9     4     5
 1.5268700000e-05     1     9     4     6
-4.7013130000e-04     1     9     4     7
 2.9166228000e-03     1     9     4     8
-8.2777121600e-02     1     9     5     1
-5.3470330100e-02     1     9     5     2
-1.7450600000e-05     1     9     5     3
 7.3437000000e-06     1     9     5     4
-1.7296279000e-02     1     9     5     5
-2.8603920100e-02     1     9     5     6
 6.6206000000e-06     1     9     5     7
 2.6586000000e-06     1     9     5     8
-3.7376453000e-03     1     9     6     1
-1.5026379000e-03     1     9     6     2
 1.0874400000e-05     1     9     6     3
 1.2571000000e-05     1     9     6     4
-2.0029365600e-02     1     9     6     5
-3.6820331000e-03     1     9     6     6
-6.0160000000e-07     1     9     6     7
-5.1890000000e-07     1     9     6     8
 3.0634000000e-06     1     9     7     1
 5.8720000000e-07     1     9     7     2
-1.5768674000e-03     1     9     7     3
 7.0668210000e-04     1     9     7     4
 1.0557000000e-06     1     9     7     5
 9.1100000000e-08     1     9     7     6
-1.3824587000e-03     1     9     7     7
 5.2219600000e-05     1     9     7     8
-3.0371000000e-06     1     9     8     1
-2.8959000000e-06     1     9     8     2
-2.2471340000e-04     1     9     8     3
-1.5940389000e-03     1     9     8     4
-5.1557000000e-06     1     9     8     5
-1.7453000000e-06     1     9     8     6
 5.3493200000e-05     1     9     8     7
-1.3552976000e-03     1     9     8     8
-4.4513824710e-01     1     9     9     1
-1.2283779210e-01     1     9     9     2
 1.4509300000e-05     1     9     9     3
 1.2497200000e-05     1     9     9     4
-1.1666931400e-02     1     9     9     5
-1.0931389000e-02     1     9     9     6
 8.7795000000e-06     1     9     9     7
 6.8603000000e-06     1     9     9     8
-3.2911101110e-01     2     1     1     2
-4.4808000000e-06     2     1     1     3
-5.7433000000e-06     2     1     1     4
 6.7113174000e-03     2     1     1     5
-9.9844960700e-02     2     1     1     6
 5.2406700000e-05     2     1     1     7
 5.6661800000e-05     2     1     1     8
-2.4284340900e-02     2     1     1     9
 1.1179600000e-05     2     1     3     2
 1.0055185760e-01     2     1     3     3
-7.0000000000e-10     2     1     3     4
-1.7259000000e-06     2     1     3     5
 1.0526800000e-05     2     1     3     6
 1.2791589800e-02     2     1     3     7
 3.7819660000e-03     2     1     3     8
-6.4963000000e-06     2     1     3     9
 1.3845000000e-05     2     1     4     2
 1.1000000000e-09     2     1     4     3
 1.0055204480e-01     2     1     4     4
-2.3400000000e-06     2     1     4     5
 5.8592000000e-06     2     1     4     6
-3.7808824000e-03     2     1     4     7
 1.2790452600e-02     2     1     4     8
-7.1172000000e-06     2     1     4     9
-1.3848105800e-02     2     1     5     2
-1.2509000000e-06     2     1     5     3
-1.5856000000e-06     2     1     5     4
 1.0618284310e-01     2     1     5     5
-1.3724409000e-03     2     1     5     6
 5.7452000000e-06     2     1     5     7
 9.2645000000e-06     2     1     5     8
 1.4982883500e-02     2     1     5     9
 6.0716186100e-02     2     1     6     2
 4.0654300000e-05     2     1     6     3
 2.1668000000e-05     2     1     6     4
-5.3561097000e-03     2     1     6     5
 1.1446712570e-01     2     1     6     6
-4.0945000000e-06     2     1     6     7
-2.9288000000e-06     2     1     6     8
 2.1933063000e-03     2     1     6     9
-3.1138400000e-05     2     1     7     2
 5.2536401100e-02     2     1     7     3
-1.5536718500e-02     2     1     7     4
 2.5326100000e-05     2     1     7     5
-3.2995000000e-06     2     1     7     6
 1.1444317150e-01     2     1     7     7
 1.3380000000e-07     2     1     7     8
-1.1061000000e-06     2     1     7     9
-3.2595500000e-05     2     1     8     2
 1.5541608900e-02     2     1     8     3
 5.2531267600e-02     2     1     8     4
 4.5416300000e-05     2     1     8     5
-1.7748000000e-06     2     1     8     6
 1.8358000000e-06     2     1     8     7
 1.1444058450e-01     2     1     8     8
 2.4083000000e-06     2     1     8     9
 1.2124680500e-02     2     1     9     2
-1.5890400000e-05     2     1     9     3
-1.7124500000e-05     2     1     9     4
 5.3470330100e-02     2     1     9     5
 1.5026379000e-03     2     1     9     6
-5.8720000000e-07     2     1     9     7
 2.8959000000e-06     2     1     9     8
 1.2283779210e-01     2     1     9     9
 3.2911101110e-01     2     2     1     1
-1.1179600000e-05     2     2     1     3
-1.3845000000e-05     2     2     1     4
 1.3848105800e-02     2     2     1     5
-6.0716186100e-02     2     2     1     6
 3.1138400000e-05     2     2     1     7
 3.2595500000e-05     2     2     1     8
-1.2124680500e-02     2     2     1     9
-1.1179600000e-05     2     2     3     1
 3.6866505320e-01     2     2     3     3
 7.5000000000e-09     2     2     3     4
-1.1169600000e-05     2     2     3     5
 6.9715600000e-05     2     2     3     6
 8.4503632200e-02     2     2     3     7
 2.5001482500e-02     2     2     3     8
-1.3089300000e-05     2     2     3     9
-1.3845000000e-05     2     2     4     1
 7.5000000000e-09     2     2     4     3
 3.6866562530e-01     2     2     4     4
-1.4206000000e-05     2     2     4     5
 3.9633100000e-05     2     2     4     6
-2.4990946000e-02     2     2     4     7
 8.4492886900e-02     2     2     4     8
-1.7972000000e-05     2     2     4     9
 1.3848105800e-02     2     2     5     1
-1.1169600000e-05     2     2     5     3
-1.4206000000e-05     2     2     5     4
 3.9247071540e-01     2     2     5     5
-1.1600780400e-02     2     2     5     6
 4.3838600000e-05     2     2     5     7
 7.3123500000e-05     2     2     5     8
 7.9205777900e-02     2     2     5     9
-6.0716186100e-02     2     2     6     1
 6.9715600000e-05     2     2     6     3
 3.9633100000e-05     2     2     6     4
-1.1600780400e-02     2     2     6     5
 3.3733287280e-01     2     2     6     6
 1.2114900000e-05     2     2     6     7
 1.5264300000e-05     2     2     6     8
-4.7034100000e-04     2     2     6     9
 3.1138400000e-05     2     2     7     1
 8.4503632200e-02     2     2     7     3
-2.4990946000e-02     2     2     7     4
 4.3838600000e-05     2     2     7     5
 1.2114900000e-05     2     2     7     6
 3.7099606210e-01     2     2     7     7
-2.5528000000e-06     2     2     7     8
-7.9888000000e-06     2     2     7     9
 3.2595500000e-05     2     2     8     1
 2.5001482500e-02     2     2     8     3
 8.4492886900e-02     2     2     8     4
 7.3123500000e-05     2     2     8     5
 1.5264300000e-05     2     2     8     6
-2.5528000000e-06     2     2     8     7
 3.7099658040e-01     2     2     8     8
-6.4437000000e-06     2     2     8     9
-1.2124680500e-02     2     2     9     1
-1.3089300000e-05     2     2     9     3
-1.7972000000e-05     2     2     9     4
 7.9205777900e-02     2     2     9     5
-4.7034100000e-04     2     2     9     6
-7.9888000000e-06     2     2     9     7
-6.4437000000e-06     2     2     9     8
 3.7579927880e-01     2     2     9     9
 4.4808000000e-06     2     3     1     1
 1.1179600000e-05     2     3     1     2
-1.8000000000e-09     2     3     1     4
-4.7500000000e-07     2     3     1     5
-3.0127500000e-05     2     3     1     6
-3.9744811300e-02     2     3     1     7
-1.1759642900e-02     2     3     1     8
 9.3941000000e-06     2     3     1     9