&FCI NORB=  9,NELEC=  2,MS2=0,
 ORBSYM=1,1,1,1,1,1,1,1,1
 ISYM=1,
&END
 3.2457964550e-01     1     1     2     2
 6.1465000000e-06     1     1     2     3
 1.8421800000e-05     1     1     2     4
-9.7386771000e-03     1     1     2     5
-9.7630916300e-02     1     1     2     6
-7.0704400000e-05     1     1     2     7
 7.8633600000e-05     1     1     2     8
 1.9684965400e-02     1     1     2     9
 6.1465000000e-06     1     1     3     2
 3.5551316540e-01     1     1     3     3
 2.1800000000e-08     1     1     3     4
-1.0788800000e-05     1     1     3     5
-8.3292700000e-05     1     1     3     6
 6.5626570800e-02     1     1     3     7
-3.5354661000e-02     1     1     3     8
-4.7631600000e-05     1     1     3     9
 1.8421800000e-05     1     1     4     2
 2.1800000000e-08     1     1     4     3
 3.5551594160e-01     1     1     4     4
-3.1465800000e-05     1     1     4     5
 1.3474700000e-05     1     1     4     6
 3.5347944900e-02     1     1     4     7
 6.5644317800e-02     1     1     4     8
-1.2065780000e-04     1     1     4     9
-9.7386771000e-03     1     1     5     2
-1.0788800000e-05     1     1     5     3
-3.1465800000e-05     1     1     5     4
 3.7712452960e-01     1     1     5     5
 1.0777158700e-02     1     1     5     6
 1.0202260000e-04     1     1     5     7
 6.1581200000e-05     1     1     5     8
 8.3740055500e-02     1     1     5     9
-9.7630916300e-02     1     1     6     2
-8.3292700000e-05     1     1     6     3
 1.3474700000e-05     1     1     6     4
 1.0777158700e-02     1     1     6     5
 4.2243710070e-01     1     1     6     6
 3.4837000000e-06     1     1     6     7
-6.3036000000e-06     1     1     6     8
-5.0381622000e-03     1     1     6     9
-7.0704400000e-05     1     1     7     2
 6.5626570800e-02     1     1     7     3
 3.5347944900e-02     1     1     7     4
 1.0202260000e-04     1     1     7     5
 3.4837000000e-06     1     1     7     6
 4.2554880100e-01     1     1     7     7
-6.6730000000e-07     1     1     7     8
-5.9764000000e-06     1     1     7     9
 7.8633600000e-05     1     1     8     2
-3.5354661000e-02     1     1     8     3
 6.5644317800e-02     1     1     8     4
 6.1581200000e-05     1     1     8     5
-6.3036000000e-06     1     1     8     6
-6.6730000000e-07     1     1     8     7
 4.2554035460e-01     1     1     8     8
 5.2586000000e-06     1     1     8     9
 1.9684965400e-02     1     1     9     2
-4.7631600000e-05     1     1     9     3
-1.2065780000e-04     1     1     9     4
 8.3740055500e-02     1     1     9     5
-5.0381622000e-03     1     1     9     6
-5.9764000000e-06     1     1     9     7
 5.2586000000e-06     1     1     9     8
 4.4624997090e-01     1     1     9     9
-3.2457964550e-01     1     2     2     1
 1.4821600000e-05     1     2     2     3
 4.3750100000e-05     1     2     2     4
-2.1980384100e-02     1     2     2     5
-5.9994234200e-02     1     2     2     6
-4.0765700000e-05     1     2     2     7
 5.3103600000e-05     1     2     2     8
 4.1235857000e-03     1     2     2     9
-6.1465000000e-06     1     2     3     1
 9.7132383900e-02     1     2     3     3
 4.1000000000e-09     1     2     3     4
-1.4336000000e-06     1     2     3     5
-5.4714500000e-05     1     2     3     6
 4.7797145800e-02     1     2     3     7
-2.5746655900e-02     1     2     3     8
-3.3476600000e-05     1     2     3     9
-1.8421800000e-05     1     2     4     1
 3.9000000000e-09     1     2     4     3
 9.7133498400e-02     1     2     4     4
-4.1551000000e-06     1     2     4     5
 2.6891800000e-05     1     2     4     6
 2.5743969700e-02     1     2     4     7
 4.7803813100e-02     1     2     4     8
-7.9860900000e-05     1     2     4     9
 9.7386771000e-03     1     2     5     1
-1.8935000000e-06     1     2     5     3
-5.3949000000e-06     1     2     5     4
 1.0189464370e-01     1     2     5     5
-6.3557960000e-04     1     2     5     6
 6.9766100000e-05     1     2     5     7
 5.6261600000e-05     1     2     5     8
 5.6038764700e-02     1     2     5     9
 9.7630916300e-02     1     2     6     1
-1.4611300000e-05     1     2     6     3
 6.1936000000e-06     1     2     6     4
 5.1519000000e-06     1     2     6     5
 1.0991689060e-01     1     2     6     6
 3.0835000000e-06     1     2     6     7
-6.2159000000e-06     1     2     6     8
 2.8297550000e-04     1     2     6     9
 7.0704400000e-05     1     2     7     1
 1.2362728300e-02     1     2     7     3
 6.6564098000e-03     1     2     7     4
 1.7173700000e-05     1     2     7     5
 4.7975000000e-06     1     2     7     6
 1.0992092280e-01     1     2     7     7
-1.0489000000e-06     1     2     7     8
-1.6104000000e-06     1     2     7     9
-7.8633600000e-05     1     2     8     1
-6.6571494000e-03     1     2     8     3
 1.2364288400e-02     1     2     8     4
 1.3199600000e-05     1     2     8     5
-3.9767000000e-06     1     2     8     6
 6.7850000000e-07     1     2     8     7
 1.0991804970e-01     1     2     8     8
-3.9990000000e-07     1     2     8     9
-1.9684965400e-02     1     2     9     1
-9.3634000000e-06     1     2     9     3
-2.3009500000e-05     1     2     9     4
 1.5435455000e-02     1     2     9     5
-3.4515165000e-03     1     2     9     6
-3.3158000000e-06     1     2     9     7
 3.6197000000e-06     1     2     9     8
 1.2596043230e-01     1     2     9     9
-6.1465000000e-06     1     3     2     1
-1.4821600000e-05     1     3     2     2
 2.0000000000e-10     1     3     2     4
 4.5990000000e-07     1     3     2     5
-4.0103200000e-05     1     3     2     6
 3.5434417500e-02     1     3     2     7
-1.9089506500e-02     1     3     2     8
-2.4113200000e-05     1     3     2     9
-3.5551316540e-01     1     3     3     1
-9.7132383900e-02     1     3     3     2
 4.0695400000e-05     1     3     3     4
-2.0534465400e-02     1     3     3     5
 1.6595946100e-02     1     3     3     6
 3.1177700000e-05     1     3     3     7
-1.2627200000e-05     1     3     3     8
-5.7229568000e-03     1     3     3     9
-2.1800000000e-08     1     3     4     1
-3.9000000000e-09     1     3     4     2
-1.3845000000e-05     1     3     4     4
 9.0000000000e-10     1     3     4     5
-7.8070000000e-07     1     3     4     6
 2.7586800000e-05     1     3     4     7
-2.7694000000e-06     1     3     4     8
-4.1772970000e-04     1     3     4     9
 1.0788800000e-05     1     3     5     1
 1.8935000000e-06     1     3     5     2
 1.0000000000e-10     1     3     5     4
-1.5050900000e-05     1     3     5     5
 1.9128000000e-06     1     3     5     6
-1.1127176500e-02     1     3     5     7
 5.9863248000e-03     1     3     5     8
-4.9098000000e-06     1     3     5     9
 8.3292700000e-05     1     3     6     1
 1.4611300000e-05     1     3     6     2
 5.0000000000e-10     1     3     6     4
-3.1780000000e-07     1     3     6     5
-2.9870000000e-05     1     3     6     6
-5.4588399000e-03     1     3     6     7
 2.9416185000e-03     1     3     6     8
 8.7864000000e-06     1     3     6     9
-6.5626570800e-02     1     3     7     1
-1.2362728300e-02     1     3     7     2
-1.9840000000e-07     1     3     7     4
 5.4541160000e-04     1     3     7     5
 1.6121487800e-02     1     3     7     6
-9.0409000000e-06     1     3     7     7
-1.4738900000e-05     1     3     7     8
 4.4348907000e-03     1     3     7     9
 3.5354661000e-02     1     3     8     1
 6.6571494000e-03     1     3     8     2
 2.1500000000e-07     1     3     8     4
-2.9306310000e-04     1     3     8     5
-8.6838115000e-03     1     3     8     6
-4.3454000000e-06     1     3     8     7
-8.1139000000e-06     1     3     8     8
-2.4942367000e-03     1     3     8     9
 4.7631600000e-05     1     3     9     1
 9.3634000000e-06     1     3     9     2
-1.0000000003e-10     1     3     9     4
 4.4440000000e-07     1     3     9     5
-1.0171500000e-05     1     3     9     6
 4.8381468000e-03     1     3     9     7
-2.5389671000e-03     1     3     9     8
-1.4070600000e-05     1     3     9     9
-1.8421800000e-05     1     4     2     1
-4.3750100000e-05     1     4     2     2
-2.0000000000e-10     1     4     2     3
 1.2398000000e-06     1     4     2     5
 2.0698200000e-05     1     4     2     6
 1.9087559900e-02     1     4     2     7
 3.5439524700e-02     1     4     2     8
-5.6851400000e-05     1     4     2     9
-2.1800000000e-08     1     4     3     1
-4.1000000000e-09     1     4     3     2
-4.0695400000e-05     1     4     3     3
 8.0000000000e-10     1     4     3     5
-7.8120000000e-07     1     4     3     6
 2.7785200000e-05     1     4     3     7
-2.9844000000e-06     1     4     3     8
-4.1772960000e-04     1     4     3     9
-3.5551594160e-01     1     4     4     1
-9.7133498400e-02     1     4     4     2
 1.3845000000e-05     1     4     4     3
-2.0534420300e-02     1     4     4     5
 1.6596628200e-02     1     4     4     6
 3.8861300000e-05     1     4     4     7
 3.1985600000e-05     1     4     4     8
-5.7242177000e-03     1     4     4     9
 3.1465800000e-05     1     4     5     1
 5.3949000000e-06     1     4     5     2
-1.0000000000e-10     1     4     5     3
-4.4483100000e-05     1     4     5     5
-4.2641600000e-05     1     4     5     6
-5.9927725000e-03     1     4     5     7
-1.1110950700e-02     1     4     5     8
-2.9581200000e-05     1     4     5     9
-1.3474700000e-05     1     4     6     1
-6.1936000000e-06     1     4     6     2
-5.0000000000e-10     1     4     6     3
 1.3441000000e-06     1     4     6     5
-3.3451000000e-05     1     4     6     6
-2.9419173000e-03     1     4     6     7
-5.4580681000e-03     1     4     6     8
 4.0433400000e-05     1     4     6     9
-3.5347944900e-02     1     4     7     1
-6.6564098000e-03     1     4     7     2
 1.9840000000e-07     1     4     7     3
 2.9295180000e-04     1     4     7     5
 8.6822489000e-03     1     4     7     6
-4.3500500000e-05     1     4     7     7
-1.1489800000e-05     1     4     7     8
 2.3266475000e-03     1     4     7     9
-6.5644317800e-02     1     4     8     1
-1.2364288400e-02     1     4     8     2
-2.1500000000e-07     1     4     8     3
 5.4556550000e-04     1     4     8     5
 1.6124256300e-02     1     4     8     6
 1.3374200000e-05     1     4     8     7
-5.8983400000e-05     1     4     8     8
 4.5185784000e-03     1     4     8     9
 1.2065780000e-04     1     4     9     1
 2.3009500000e-05     1     4     9     2
 1.0000000003e-10     1     4     9     3
 1.3788000000e-06     1     4     9     5
-6.1939000000e-06     1     4     9     6
 2.6398984000e-03     1     4     9     7
 4.7818200000e-03     1     4     9     8
-3.5712900000e-05     1     4     9     9
 9.7386771000e-03     1     5     2     1
 2.1980384100e-02     1     5     2     2
-4.5990000000e-07     1     5     2     3
-1.2398000000e-06     1     5     2     4
-6.4073150000e-04     1     5     2     6
 5.2592400000e-05     1     5     2     7
 4.3062000000e-05     1     5     2     8
 4.0603309700e-02     1     5     2     9
 1.0788800000e-05     1     5     3     1
 1.4336000000e-06     1     5     3     2
 2.0534465400e-02     1     5     3     3
-8.0000000000e-10     1     5     3     4
 2.2306000000e-06     1     5     3     6
-1.1672588100e-02     1     5     3     7
 6.2793879000e-03     1     5     3     8
-5.3542000000e-06     1     5     3     9
 3.1465800000e-05     1     5     4     1
 4.1551000000e-06     1     5     4     2
-9.0000000000e-10     1     5     4     3
 2.0534420300e-02     1     5     4     4
-4.3985700000e-05     1     5     4     6
-6.2857243000e-03     1     5     4     7
-1.1656516200e-02     1     5     4     8
-3.0960000000e-05     1     5     4     9
-3.7712452960e-01     1     5     5     1
-1.0189464370e-01     1     5     5     2
 1.5050900000e-05     1     5     5     3
 4.4483100000e-05     1     5     5     4
 3.5362787600e-02     1     5     5     6
-2.0240200000e-05     1     5     5     7
-8.0414500000e-05     1     5     5     8
 9.0213714000e-03     1     5     5     9
-1.0777158700e-02     1     5     6     1
-5.1519000000e-06     1     5     6     2
 3.1780000000e-07     1     5     6     3
-1.3441000000e-06     1     5     6     4
 1.9832758600e-02     1     5     6     6
-6.9601000000e-06     1     5     6     7
 1.6752000000e-06     1     5     6     8
-2.2015229200e-02     1     5     6     9
-1.0202260000e-04     1     5     7     1
-1.7173700000e-05     1     5     7     2
-5.4541160000e-04     1     5     7     3
-2.9295180000e-04     1     5     7     4
 2.1480300000e-05     1     5     7     6
 2.3276919100e-02     1     5     7     7
 2.1960000000e-07     1     5     7     8
-3.6462000000e-06     1     5     7     9
-6.1581200000e-05     1     5     8     1
-1.3199600000e-05     1     5     8     2
 2.9306310000e-04     1     5     8     3
-5.4556550000e-04     1     5     8     4
 2.2584600000e-05     1     5     8     6
-1.9680000000e-07     1     5     8     7
 2.3276426500e-02     1     5     8     8
 2.9311400000e-05     1     5     8     9
-8.3740055500e-02     1     5     9     1
-1.5435455000e-02     1     5     9     2
-4.4440000000e-07     1     5     9     3
-1.3788000000e-06     1     5     9     4
 7.8371905000e-03     1     5     9     6
 1.4916100000e-05     1     5     9     7
 5.6090000000e-07     1     5     9     8
 1.9566795400e-02     1     5     9     9
 9.7630916300e-02     1     6     2     1
 5.9994234200e-02     1     6     2     2
 4.0103200000e-05     1     6     2     3
-2.0698200000e-05     1     6     2     4
 6.4073150000e-04     1     6     2     5
-1.7140000000e-06     1     6     2     7
-2.2392000000e-06     1     6     2     8
 3.7344920000e-03     1     6     2     9
 8.3292700000e-05     1     6     3     1
 5.4714500000e-05     1     6     3     2
-1.6595946100e-02     1     6     3     3
 7.8120000000e-07     1     6     3     4
-2.2306000000e-06     1     6     3     5
-2.1580327700e-02     1     6     3     7
 1.1625430000e-02     1     6     3     8
 1.8957900000e-05     1     6     3     9
-1.3474700000e-05     1     6     4     1
-2.6891800000e-05     1     6     4     2
 7.8070000000e-07     1     6     4     3
-1.6596628200e-02     1     6     4     4
 4.3985700000e-05     1     6     4     5
-1.1624166200e-02     1     6     4     7
-2.1582324400e-02     1     6     4     8
 4.6627300000e-05     1     6     4     9
-1.0777158700e-02     1     6     5     1
 6.3557960000e-04     1     6     5     2
-1.9128000000e-06     1     6     5     3
 4.2641600000e-05     1     6     5     4
-3.5362787600e-02     1     6     5     5
-2.8440400000e-05     1     6     5     7
-2.0909400000e-05     1     6     5     8
-2.9852419700e-02     1     6     5     9
-4.2243710070e-01     1     6     6     1
-1.0991689060e-01     1     6     6     2
 2.9870000000e-05     1     6     6     3
 3.3451000000e-05     1     6     6     4
-1.9832758600e-02     1     6     6     5
 7.8893000000e-06     1     6     6     7
-9.8420000000e-06     1     6     6     8
 2.6022628000e-03     1     6     6     9
-3.4837000000e-06     1     6     7     1
-4.7975000000e-06     1     6     7     2
-1.6121487800e-02     1     6     7     3
-8.6822489000e-03     1     6     7     4
-2.1480300000e-05     1     6     7     5
-1.1106250800e-02     1     6     7     7
 4.9500000000e-07     1     6     7     8
 1.1480000000e-06     1     6     7     9
 6.3036000000e-06     1     6     8     1
 3.9767000000e-06     1     6     8     2
 8.6838115000e-03     1     6     8     3
-1.6124256300e-02     1     6     8     4
-2.2584600000e-05     1     6     8     5
-1.8180000000e-07     1     6     8     7
-1.1106701400e-02     1     6     8     8
-1.2781000000e-06     1     6     8     9
 5.0381622000e-03     1     6     9     1
 3.4515165000e-03     1     6     9     2
 1.0171500000e-05     1     6     9     3
 6.1939000000e-06     1     6     9     4
-7.8371905000e-03     1     6     9     5
-2.8500000000e-08     1     6     9     7
-1.1333000000e-06     1     6     9     8
-1.2453077900e-02     1     6     9     9
 7.0704400000e-05     1     7     2     1
 4.0765700000e-05     1     7     2     2
-3.5434417500e-02     1     7     2     3
-1.9087559900e-02     1     7     2     4
-5.2592400000e-05     1     7     2     5
 1.7140000000e-06     1     7     2     6
-1.7274000000e-06     1     7     2     8
 1.7054000000e-06     1     7     2     9
-6.5626570800e-02     1     7     3     1
-4.7797145800e-02     1     7     3     2
-3.1177700000e-05     1     7     3     3
-2.7785200000e-05     1     7     3     4
 1.1672588100e-02     1     7     3     5
 2.1580327700e-02     1     7     3     6
-1.0393500000e-05     1     7     3     8
-4.0325610000e-04     1     7     3     9
-3.5347944900e-02     1     7     4     1
-2.5743969700e-02     1     7     4     2
-2.7586800000e-05     1     7     4     3
-3.8861300000e-05     1     7     4     4
 6.2857243000e-03     1     7     4     5
 1.1624166200e-02     1     7     4     6
-2.4864000000e-05     1     7     4     8
-3.1325090000e-04     1     7     4     9
-1.0202260000e-04     1     7     5     1
-6.9766100000e-05     1     7     5     2
 1.1127176500e-02     1     7     5     3
 5.9927725000e-03     1     7     5     4
 2.0240200000e-05     1     7     5     5
 2.8440400000e-05     1     7     5     6
 4.1640000000e-07     1     7     5     8
-1.8562300000e-05     1     7     5     9
-3.4837000000e-06     1     7     6     1
-3.0835000000e-06     1     7     6     2
 5.4588399000e-03     1     7     6     3
 2.9419173000e-03     1     7     6     4
 6.9601000000e-06     1     7     6     5
-7.8893000000e-06     1     7     6     6
 6.7680000000e-07     1     7     6     8
 1.1765000000e-06     1     7     6     9
-4.2554880100e-01     1     7     7     1
-1.0992092280e-01     1     7     7     2
 9.0409000000e-06     1     7     7     3
 4.3500500000e-05     1     7     7     4
-2.3276919100e-02     1     7     7     5
 1.1106250800e-02     1     7     7     6
-9.6868000000e-06     1     7     7     8
 1.0602284000e-03     1     7     7     9
 6.6730000000e-07     1     7     8     1
-6.7850000000e-07     1     7     8     2
 4.3454000000e-06     1     7     8     3
-1.3374200000e-05     1     7     8     4
 1.9680000000e-07     1     7     8     5
 1.8180000000e-07     1     7     8     6
-9.1140000000e-06     1     7     8     8
-1.3900200000e-05     1     7     8     9
 5.9764000000e-06     1     7     9     1
 3.3158000000e-06     1     7     9     2
-4.8381468000e-03     1     7     9     3
-2.6398984000e-03     1     7     9     4
-1.4916100000e-05     1     7     9     5
 2.8500000000e-08     1     7     9     6
 5.4130000000e-07     1     7     9     8
-9.7328000000e-06     1     7     9     9
-7.8633600000e-05     1     8     2     1
-5.3103600000e-05     1     8     2     2
 1.9089506500e-02     1     8     2     3
-3.5439524700e-02     1     8     2     4
-4.3062000000e-05     1     8     2     5
 2.2392000000e-06     1     8     2     6
 1.7274000000e-06     1     8     2     7
-4.0196000000e-06     1     8     2     9
 3.5354661000e-02     1     8     3     1
 2.5746655900e-02     1     8     3     2
 1.2627200000e-05     1     8     3     3
 2.9844000000e-06     1     8     3     4
-6.2793879000e-03     1     8     3     5
-1.1625430000e-02     1     8     3     6
 1.0393500000e-05     1     8     3     7
 4.4730400000e-05     1     8     3     9
-6.5644317800e-02     1     8     4     1
-4.7803813100e-02     1     8     4     2
 2.7694000000e-06     1     8     4     3
-3.1985600000e-05     1     8     4     4
 1.1656516200e-02     1     8     4     5
 2.1582324400e-02     1     8     4     6
 2.4864000000e-05     1     8     4     7
-2.6324160000e-04     1     8     4     9
-6.1581200000e-05     1     8     5     1
-5.6261600000e-05     1     8     5     2
-5.9863248000e-03     1     8     5     3
 1.1110950700e-02     1     8     5     4
 8.0414500000e-05     1     8     5     5
 2.0909400000e-05     1     8     5     6
-4.1640000000e-07     1     8     5     7
 2.8750500000e-05     1     8     5     9
 6.3036000000e-06     1     8     6     1
 6.2159000000e-06     1     8     6     2
-2.9416185000e-03     1     8     6     3
 5.4580681000e-03     1     8     6     4
-1.6752000000e-06     1     8     6     5
 9.8420000000e-06     1     8     6     6
-6.7680000000e-07     1     8     6     7
-1.4480000000e-07     1     8     6     9
 6.6730000000e-07     1     8     7     1
 1.0489000000e-06     1     8     7     2
 1.4738900000e-05     1     8     7     3
 1.1489800000e-05     1     8     7     4
-2.1960000000e-07     1     8     7     5
-4.9500000000e-07     1     8     7     6
 9.6868000000e-06     1     8     7     7
-1.4441500000e-05     1     8     7     9
-4.2554035460e-01     1     8     8     1
-1.0991804970e-01     1     8     8     2
 8.1139000000e-06     1     8     8     3
 5.8983400000e-05     1     8     8     4
-2.3276426500e-02     1     8     8     5
 1.1106701400e-02     1     8     8     6
 9.1140000000e-06     1     8     8     7
 1.1046329000e-03     1     8     8     9
-5.2586000000e-06     1     8     9     1
-3.6197000000e-06     1     8     9     2
 2.5389671000e-03     1     8     9     3
-4.7818200000e-03     1     8     9     4
-5.6090000000e-07     1     8     9     5
 1.1333000000e-06     1     8     9     6
-5.4130000000e-07     1     8     9     7
 1.1471600000e-05     1     8     9     9
-1.9684965400e-02     1     9     2     1
-4.1235857000e-03     1     9     2     2
 2.4113200000e-05     1     9     2     3
 5.6851400000e-05     1     9     2     4
-4.0603309700e-02     1     9     2     5
-3.7344920000e-03     1     9     2     6
-1.7054000000e-06     1     9     2     7
 4.0196000000e-06     1     9     2     8
 4.7631600000e-05     1     9     3     1
 3.3476600000e-05     1     9     3     2
 5.7229568000e-03     1     9     3     3
 4.1772960000e-04     1     9     3     4
 5.3542000000e-06     1     9     3     5
-1.8957900000e-05     1     9     3     6
 4.0325610000e-04     1     9     3     7
-4.4730400000e-05     1     9     3     8
 1.2065780000e-04     1     9     4     1
 7.9860900000e-05     1     9     4     2
 4.1772970000e-04     1     9     4     3
 5.7242177000e-03     1     9     4     4
 3.0960000000e-05     1     9     4     5
-4.6627300000e-05     1     9     4     6
 3.1325090000e-04     1     9     4     7
 2.6324160000e-04     1     9     4     8
-8.3740055500e-02     1     9     5     1
-5.6038764700e-02     1     9     5     2
 4.9098000000e-06     1     9     5     3
 2.9581200000e-05     1     9     5     4
-9.0213714000e-03     1     9     5     5
 2.9852419700e-02     1     9     5     6
 1.8562300000e-05     1     9     5     7
-2.8750500000e-05     1     9     5     8
 5.0381622000e-03     1     9     6     1
-2.8297550000e-04     1     9     6     2
-8.7864000000e-06     1     9     6     3
-4.0433400000e-05     1     9     6     4
 2.2015229200e-02     1     9     6     5
-2.6022628000e-03     1     9     6     6
-1.1765000000e-06     1     9     6     7
 1.4480000000e-07     1     9     6     8
 5.9764000000e-06     1     9     7     1
 1.6104000000e-06     1     9     7     2
-4.4348907000e-03     1     9     7     3
-2.3266475000e-03     1     9     7     4
 3.6462000000e-06     1     9     7     5
-1.1480000000e-06     1     9     7     6
-1.0602284000e-03     1     9     7     7
 1.4441500000e-05     1     9     7     8
-5.2586000000e-06     1     9     8     1
 3.9990000000e-07     1     9     8     2
 2.4942367000e-03     1     9     8     3
-4.5185784000e-03     1     9     8     4
-2.9311400000e-05     1     9     8     5
 1.2781000000e-06     1     9     8     6
 1.3900200000e-05     1     9     8     7
-1.1046329000e-03     1     9     8     8
-4.4624997090e-01     1     9     9     1
-1.2596043230e-01     1     9     9     2
 1.4070600000e-05     1     9     9     3
 3.5712900000e-05     1     9     9     4
-1.9566795400e-02     1     9     9     5
 1.2453077900e-02     1     9     9     6
 9.7328000000e-06     1     9     9     7
-1.1471600000e-05     1     9     9     8
-3.2457964550e-01     2     1     1     2
-6.1465000000e-06     2     1     1     3
-1.8421800000e-05     2     1     1     4
 9.7386771000e-03     2     1     1     5
 9.7630916300e-02     2     1     1     6
 7.0704400000e-05     2     1     1     7
-7.8633600000e-05     2     1     1     8
-1.9684965400e-02     2     1     1     9
 1.4821600000e-05     2     1     3     2
 9.7132383900e-02     2     1     3     3
 3.9000000000e-09     2     1     3     4
-1.8935000000e-06     2     1     3     5
-1.4611300000e-05     2     1     3     6
 1.2362728300e-02     2     1     3     7
-6.6571494000e-03     2     1     3     8
-9.3634000000e-06     2     1     3     9
 4.3750100000e-05     2     1     4     2
 4.1000000000e-09     2     1     4     3
 9.7133498400e-02     2     1     4     4
-5.3949000000e-06     2     1     4     5
 6.1936000000e-06     2     1     4     6
 6.6564098000e-03     2     1     4     7
 1.2364288400e-02     2     1     4     8
-2.3009500000e-05     2     1     4     9
-2.1980384100e-02     2     1     5     2
-1.4336000000e-06     2     1     5     3
-4.1551000000e-06     2     1     5     4
 1.0189464370e-01     2     1     5     5
 5.1519000000e-06     2     1     5     6
 1.7173700000e-05     2     1     5     7
 1.3199600000e-05     2     1     5     8
 1.5435455000e-02     2     1     5     9
-5.9994234200e-02     2     1     6     2
-5.4714500000e-05     2     1     6     3
 2.6891800000e-05     2     1     6     4
-6.3557960000e-04     2     1     6     5
 1.0991689060e-01     2     1     6     6
 4.7975000000e-06     2     1     6     7
-3.9767000000e-06     2     1     6     8
-3.4515165000e-03     2     1     6     9
-4.0765700000e-05     2     1     7     2
 4.7797145800e-02     2     1     7     3
 2.5743969700e-02     2     1     7     4
 6.9766100000e-05     2     1     7     5
 3.0835000000e-06     2     1     7     6
 1.0992092280e-01     2     1     7     7
 6.7850000000e-07     2     1     7     8
-3.3158000000e-06     2     1     7     9
 5.3103600000e-05     2     1     8     2
-2.5746655900e-02     2     1     8     3
 4.7803813100e-02     2     1     8     4
 5.6261600000e-05     2     1     8     5
-6.2159000000e-06     2     1     8     6
-1.0489000000e-06     2     1     8     7
 1.0991804970e-01     2     1     8     8
 3.6197000000e-06     2     1     8     9
 4.1235857000e-03     2     1     9     2
-3.3476600000e-05     2     1     9     3
-7.9860900000e-05     2     1     9     4
 5.6038764700e-02     2     1     9     5
 2.8297550000e-04     2     1     9     6
-1.6104000000e-06     2     1     9     7
-3.9990000000e-07     2     1     9     8
 1.2596043230e-01     2     1     9     9
 3.2457964550e-01     2     2     1     1
-1.4821600000e-05     2     2     1     3
-4.3750100000e-05     2     2     1     4
 2.1980384100e-02     2     2     1     5
 5.9994234200e-02     2     2     1     6
 4.0765700000e-05     2     2     1     7
-5.3103600000e-05     2     2     1     8
-4.1235857000e-03     2     2     1     9
-1.4821600000e-05     2     2     3     1
 3.6396828000e-01     2     2     3     3
 2.0000000000e-08     2     2     3     4
-9.5406000000e-06     2     2     3     5
-9.2242800000e-05     2     2     3     6
 7.5023789100e-02     2     2     3     7
-4.0417163600e-02     2     2     3     8
-4.7429100000e-05     2     2     3     9
-4.3750100000e-05     2     2     4     1
 2.0000000000e-08     2     2     4     3
 3.6397139580e-01     2     2     4     4
-2.7744800000e-05     2     2     4     5
 2.4807500000e-05     2     2     4     6
 4.0409722600e-02     2     2     4     7
 7.5041163400e-02     2     2     4     8
-1.1605320000e-04     2     2     4     9
 2.1980384100e-02     2     2     5     1
-9.5406000000e-06     2     2     5     3
-2.7744800000e-05     2     2     5     4
 3.8428144350e-01     2     2     5     5
 6.7336765000e-03     2     2     5     6
 1.1226570000e-04     2     2     5     7
 7.7792200000e-05     2     2     5     8
 8.2445222700e-02     2     2     5     9
 5.9994234200e-02     2     2     6     1
-9.2242800000e-05     2     2     6     3
 2.4807500000e-05     2     2     6     4
 6.7336765000e-03     2     2     6     5
 3.3174857400e-01     2     2     6     6
-1.8727100000e-05     2     2     6     7
 2.1543400000e-05     2     2     6     8
-3.2372598000e-03     2     2     6     9
 4.0765700000e-05     2     2     7     1
 7.5023789100e-02     2     2     7     3
 4.0409722600e-02     2     2     7     4
 1.1226570000e-04     2     2     7     5
-1.8727100000e-05     2     2     7     6
 3.6538350480e-01     2     2     7     7
-1.2599000000e-06     2     2     7     8
-7.3359000000e-06     2     2     7     9
-5.3103600000e-05     2     2     8     1
-4.0417163600e-02     2     2     8     3
 7.5041163400e-02     2     2     8     4
 7.7792200000e-05     2     2     8     5
 2.1543400000e-05     2     2     8     6
-1.2599000000e-06     2     2     8     7
 3.6536863180e-01     2     2     8     8
 2.4890000000e-06     2     2     8     9
-4.1235857000e-03     2     2     9     1
-4.7429100000e-05     2     2     9     3
-1.1605320000e-04     2     2     9     4
 8.2445222700e-02     2     2     9     5
-3.2372598000e-03     2     2     9     6
-7.3359000000e-06     2     2     9     7
 2.4890000000e-06     2     2     9     8
 3.7917642400e-01     2     2     9     9
 6.1465000000e-06     2     3     1     1
 1.4821600000e-05     2     3     1     2
-2.0000000000e-10     2     3     1     4
-4.5990000000e-07     2     3     1     5
 4.0103200000e-05     2     3     1     6
-3.5434417500e-02     2     3     1     7
 1.9089506500e-02     2     3     1     8
 2.4113200000e-05     2     3     1     9