&FCI NORB=  9,NELEC=  2,MS2=0,
 ORBSYM=1,1,1,1,1,1,1,1,1
 ISYM=1,
&END
 1.2739775440e-01     1     1     2     2
 3.9731303800e-02     1     1     2     3
-5.8281786000e-03     1     1     2     4
-5.0259200000e-05     1     1     2     5
 2.6503400000e-05     1     1     2     6
 1.3346870800e-02     1     1     2     7
 1.0094900000e-05     1     1     2     8
-2.1410400000e-05     1     1     2     9
 3.9731303800e-02     1     1     3     2
 2.6332743990e-01     1     1     3     3
 2.4972739000e-03     1     1     3     4
 1.8926200000e-05     1     1     3     5
-1.1566700000e-05     1     1     3     6
-4.4884973600e-02     1     1     3     7
 1.3275400000e-05     1     1     3     8
 7.2150200000e-05     1     1     3     9
-5.8281786000e-03     1     1     4     2
 2.4972739000e-03     1     1     4     3
 2.7901230240e-01     1     1     4     4
-3.3481300000e-05     1     1     4     5
 1.8772900000e-05     1     1     4     6
 5.8518702300e-02     1     1     4     7
-2.8194440000e-04     1     1     4     8
 4.8575260000e-04     1     1     4     9
-5.0259200000e-05     1     1     5     2
 1.8926200000e-05     1     1     5     3
-3.3481300000e-05     1     1     5     4
 2.8488978550e-01     1     1     5     5
 7.1670000000e-07     1     1     5     6
 4.0579410000e-04     1     1     5     7
 2.7493528000e-03     1     1     5     8
-6.6327742400e-02     1     1     5     9
 2.6503400000e-05     1     1     6     2
-1.1566700000e-05     1     1     6     3
 1.8772900000e-05     1     1     6     4
 7.1670000000e-07     1     1     6     5
 2.8488633630e-01     1     1     6     6
-2.3642360000e-04     1     1     6     7
-6.6328927300e-02     1     1     6     8
-2.7514746000e-03     1     1     6     9
 1.3346870800e-02     1     1     7     2
-4.4884973600e-02     1     1     7     3
 5.8518702300e-02     1     1     7     4
 4.0579410000e-04     1     1     7     5
-2.3642360000e-04     1     1     7     6
 2.9411237990e-01     1     1     7     7
-1.3049500000e-05     1     1     7     8
 1.6583400000e-05     1     1     7     9
 1.0094900000e-05     1     1     8     2
 1.3275400000e-05     1     1     8     3
-2.8194440000e-04     1     1     8     4
 2.7493528000e-03     1     1     8     5
-6.6328927300e-02     1     1     8     6
-1.3049500000e-05     1     1     8     7
 3.1494408440e-01     1     1     8     8
 2.7330000000e-07     1     1     8     9
-2.1410400000e-05     1     1     9     2
 7.2150200000e-05     1     1     9     3
 4.8575260000e-04     1     1     9     4
-6.6327742400e-02     1     1     9     5
-2.7514746000e-03     1     1     9     6
 1.6583400000e-05     1     1     9     7
 2.7330000000e-07     1     1     9     8
 3.1495688020e-01     1     1     9     9
-1.2739775440e-01     1     2     2     1
-2.0289617500e-02     1     2     2     3
 2.0885848400e-02     1     2     2     4
 1.8828400000e-04     1     2     2     5
-9.5572800000e-05     1     2     2     6
-6.9842419000e-03     1     2     2     7
-8.1634000000e-06     1     2     2     8
 1.3815200000e-05     1     2     2     9
-3.9731303800e-02     1     2     3     1
-7.2361192400e-02     1     2     3     3
-5.7208923000e-03     1     2     3     4
-4.8623200000e-05     1     2     3     5
 2.5712400000e-05     1     2     3     6
 3.5749086600e-02     1     2     3     7
-1.0034000000e-06     1     2     3     8
-6.0786000000e-05     1     2     3     9
 5.8281786000e-03     1     2     4     1
-9.3418270000e-03     1     2     4     3
-9.0996773100e-02     1     2     4     4
 2.4087600000e-05     1     2     4     5
-1.3370700000e-05     1     2     4     6
-3.8865012600e-02     1     2     4     7
 1.8355480000e-04     1     2     4     8
-3.1933850000e-04     1     2     4     9
 5.0259200000e-05     1     2     5     1
-8.2059000000e-05     1     2     5     3
 2.5129500000e-05     1     2     5     4
-9.4722672000e-02     1     2     5     5
-3.8800000000e-07     1     2     5     6
-2.7113930000e-04     1     2     5     7
-1.8324775000e-03     1     2     5     8
 4.4201403800e-02     1     2     5     9
-2.6503400000e-05     1     2     6     1
 4.2408900000e-05     1     2     6     3
-1.3427600000e-05     1     2     6     4
-4.8220000000e-07     1     2     6     5
-9.4720863500e-02     1     2     6     6
 1.5795470000e-04     1     2     6     7
 4.4202609900e-02     1     2     6     8
 1.8336247000e-03     1     2     6     9
-1.3346870800e-02     1     2     7     1
 3.0610040500e-02     1     2     7     3
-2.8651098300e-02     1     2     7     4
-1.9542270000e-04     1     2     7     5
 1.1565890000e-04     1     2     7     6
-8.6851240800e-02     1     2     7     7
 1.1993900000e-05     1     2     7     8
-2.4608200000e-05     1     2     7     9
-1.0094900000e-05     1     2     8     1
-7.1160000000e-07     1     2     8     3
 1.4377360000e-04     1     2     8     4
-1.4282775000e-03     1     2     8     5
 3.4453056600e-02     1     2     8     6
 1.3202700000e-05     1     2     8     7
-1.0671868220e-01     1     2     8     8
-2.7520000000e-07     1     2     8     9
 2.1410400000e-05     1     2     9     1
-5.2704400000e-05     1     2     9     3
-2.5076260000e-04     1     2     9     4
 3.4452201500e-02     1     2     9     5
 1.4291526000e-03     1     2     9     6
-2.5113000000e-05     1     2     9     7
-2.5050000000e-07     1     2     9     8
-1.0672735780e-01     1     2     9     9
-3.9731303800e-02     1     3     2     1
 2.0289617500e-02     1     3     2     2
 3.6209347000e-03     1     3     2     4
 3.3435800000e-05     1     3     2     5
-1.6696500000e-05     1     3     2     6
 5.1390461000e-03     1     3     2     7
-2.9180000000e-07     1     3     2     8
-8.0816000000e-06     1     3     2     9
-2.6332743990e-01     1     3     3     1
 7.2361192400e-02     1     3     3     2
 1.2153850700e-02     1     3     3     4
 1.0973500000e-04     1     3     3     5
-5.5469400000e-05     1     3     3     6
 1.4188994500e-02     1     3     3     7
-1.1731300000e-05     1     3     3     8
-2.4950000000e-05     1     3     3     9
-2.4972739000e-03     1     3     4     1
 9.3418270000e-03     1     3     4     2
-5.6370163300e-02     1     3     4     4
 9.2123000000e-06     1     3     4     5
-5.1544000000e-06     1     3     4     6
-3.0529341600e-02     1     3     4     7
 1.7034720000e-04     1     3     4     8
-2.9730370000e-04     1     3     4     9
-1.8926200000e-05     1     3     5     1
 8.2059000000e-05     1     3     5     2
 9.1926000000e-06     1     3     5     4
-5.8080305800e-02     1     3     5     5
-1.7610000000e-07     1     3     5     6
-2.0430420000e-04     1     3     5     7
-1.6579876000e-03     1     3     5     8
 3.9996891000e-02     1     3     5     9
 1.1566700000e-05     1     3     6     1
-4.2408900000e-05     1     3     6     2
-5.2438000000e-06     1     3     6     4
-3.0350000000e-07     1     3     6     5
-5.8079187900e-02     1     3     6     6
 1.2108460000e-04     1     3     6     7
 3.9996680300e-02     1     3     6     8
 1.6593378000e-03     1     3     6     9
 4.4884973600e-02     1     3     7     1
-3.0610040500e-02     1     3     7     2
-1.2154666700e-02     1     3     7     4
-8.6588000000e-05     1     3     7     5
 4.9997700000e-05     1     3     7     6
-4.9265945200e-02     1     3     7     7
 4.8480000000e-06     1     3     7     8
-8.1021000000e-06     1     3     7     9
-1.3275400000e-05     1     3     8     1
 7.1160000000e-07     1     3     8     2
 4.8654000000e-05     1     3     8     4
-4.8326560000e-04     1     3     8     5
 1.1659259400e-02     1     3     8     6
 4.5321000000e-06     1     3     8     7
-5.7267243800e-02     1     3     8     8
-4.0400000000e-08     1     3     8     9
-7.2150200000e-05     1     3     9     1
 5.2704400000e-05     1     3     9     2
-8.2729400000e-05     1     3     9     4
 1.1657995700e-02     1     3     9     5
 4.8334590000e-04     1     3     9     6
-5.7870000000e-06     1     3     9     7
-5.6500000000e-08     1     3     9     8
-5.7272544100e-02     1     3     9     9
 5.8281786000e-03     1     4     2     1
-2.0885848400e-02     1     4     2     2
-3.6209347000e-03     1     4     2     3
-1.0419000000e-06     1     4     2     5
 5.6900000000e-08     1     4     2     6
-1.0213914300e-02     1     4     2     7
 3.9781200000e-05     1     4     2     8
-6.8575900000e-05     1     4     2     9
-2.4972739000e-03     1     4     3     1
 5.7208923000e-03     1     4     3     2
-1.2153850700e-02     1     4     3     3
 1.9700000000e-08     1     4     3     5
 8.9400000000e-08     1     4     3     6
-1.8374674900e-02     1     4     3     7
 1.2169320000e-04     1     4     3     8
-2.1457430000e-04     1     4     3     9
-2.7901230240e-01     1     4     4     1
 9.0996773100e-02     1     4     4     2
 5.6370163300e-02     1     4     4     3
 1.4442720000e-04     1     4     4     5
-7.3745400000e-05     1     4     4     6
-1.4404175200e-02     1     4     4     7
-2.9737500000e-05     1     4     4     8
 8.2236800000e-05     1     4     4     9
 3.3481300000e-05     1     4     5     1
-2.5129500000e-05     1     4     5     2
-9.1926000000e-06     1     4     5     3
-1.6248360700e-02     1     4     5     5
 1.7000000000e-09     1     4     5     6
 3.6999900000e-05     1     4     5     7
 1.4191380000e-04     1     4     5     8
-3.4096538000e-03     1     4     5     9
-1.8772900000e-05     1     4     6     1
 1.3427600000e-05     1     4     6     2
 5.2438000000e-06     1     4     6     3
 2.2100000000e-08     1     4     6     5
-1.6248351500e-02     1     4     6     6
-1.9985900000e-05     1     4     6     7
-3.4113040000e-03     1     4     6     8
-1.4166840000e-04     1     4     6     9
-5.8518702300e-02     1     4     7     1
 2.8651098300e-02     1     4     7     2
 1.2154666700e-02     1     4     7     3
 1.3010000000e-07     1     4     7     5
-1.0030000000e-07     1     4     7     6
-2.6594249000e-02     1     4     7     7
-1.2158200000e-05     1     4     7     8
 4.2153100000e-05     1     4     7     9
 2.8194440000e-04     1     4     8     1
-1.4377360000e-04     1     4     8     2
-4.8654000000e-05     1     4     8     3
-1.7521100000e-05     1     4     8     5
 4.2137730000e-04     1     4     8     6
 4.1215700000e-05     1     4     8     7
-1.9566721800e-02     1     4     8     8
 1.7000000000e-09     1     4     8     9
-4.8575260000e-04     1     4     9     1
 2.5076260000e-04     1     4     9     2
 8.2729400000e-05     1     4     9     3
 4.2148260000e-04     1     4     9     5
 1.7529200000e-05     1     4     9     6
-7.1984500000e-05     1     4     9     7
-9.8800000000e-08     1     4     9     8
-1.9566366100e-02     1     4     9     9
 5.0259200000e-05     1     5     2     1
-1.8828400000e-04     1     5     2     2
-3.3435800000e-05     1     5     2     3
 1.0419000000e-06     1     5     2     4
 9.4200000000e-08     1     5     2     6
-7.5716600000e-05     1     5     2     7
-4.0420000000e-04     1     5     2     8
 9.7492023000e-03     1     5     2     9
-1.8926200000e-05     1     5     3     1
 4.8623200000e-05     1     5     3     2
-1.0973500000e-04     1     5     3     3
-1.9700000000e-08     1     5     3     4
 1.2740000000e-07     1     5     3     6
-1.1771620000e-04     1     5     3     7
-1.1747220000e-03     1     5     3     8
 2.8338895300e-02     1     5     3     9
 3.3481300000e-05     1     5     4     1
-2.4087600000e-05     1     5     4     2
-9.2123000000e-06     1     5     4     3
-1.4442720000e-04     1     5     4     4
-2.0400000000e-08     1     5     4     6
 3.6869800000e-05     1     5     4     7
 1.5943490000e-04     1     5     4     8
-3.8311364000e-03     1     5     4     9
-2.8488978550e-01     1     5     5     1
 9.4722672000e-02     1     5     5     2
 5.8080305800e-02     1     5     5     3
 1.6248360700e-02     1     5     5     4
-7.4295600000e-05     1     5     5     6
-1.8987537100e-02     1     5     5     7
-6.8920000000e-06     1     5     5     8
-2.9474900000e-05     1     5     5     9
-7.1670000000e-07     1     5     6     1
 4.8220000000e-07     1     5     6     2
 3.0350000000e-07     1     5     6     3
-2.2100000000e-08     1     5     6     4
-1.4514780000e-04     1     5     6     6
-1.8680000000e-07     1     5     6     7
-3.1753500000e-05     1     5     6     8
 1.7296700000e-05     1     5     6     9
-4.0579410000e-04     1     5     7     1
 1.9542270000e-04     1     5     7     2
 8.6588000000e-05     1     5     7     3
-1.3010000000e-07     1     5     7     4
 2.9200000000e-08     1     5     7     6
-2.2379520000e-04     1     5     7     7
 1.1754730000e-04     1     5     7     8
-2.8313466000e-03     1     5     7     9
-2.7493528000e-03     1     5     8     1
 1.4282775000e-03     1     5     8     2
 4.8326560000e-04     1     5     8     3
 1.7521100000e-05     1     5     8     4
 3.2663000000e-06     1     5     8     6
-4.2054780000e-04     1     5     8     7
-1.7528490000e-04     1     5     8     8
-1.1954000000e-06     1     5     8     9
 6.6327742400e-02     1     5     9     1
-3.4452201500e-02     1     5     9     2
-1.1657995700e-02     1     5     9     3
-4.2148260000e-04     1     5     9     4
 1.8506000000e-06     1     5     9     6
 1.0142479300e-02     1     5     9     7
-1.7817000000e-06     1     5     9     8
-1.8673870000e-04     1     5     9     9
-2.6503400000e-05     1     6     2     1
 9.5572800000e-05     1     6     2     2
 1.6696500000e-05     1     6     2     3
-5.6900000000e-08     1     6     2     4
-9.4200000000e-08     1     6     2     5
 4.2295800000e-05     1     6     2     7
 9.7495533000e-03     1     6     2     8
 4.0447210000e-04     1     6     2     9
 1.1566700000e-05     1     6     3     1
-2.5712400000e-05     1     6     3     2
 5.5469400000e-05     1     6     3     3
-8.9400000000e-08     1     6     3     4
-1.2740000000e-07     1     6     3     5
 7.1086900000e-05     1     6     3     7
 2.8337420900e-02     1     6     3     8
 1.1759919000e-03     1     6     3     9
-1.8772900000e-05     1     6     4     1
 1.3370700000e-05     1     6     4     2
 5.1544000000e-06     1     6     4     3
 7.3745400000e-05     1     6     4     4
 2.0400000000e-08     1     6     4     5
-1.9885600000e-05     1     6     4     7
-3.8326813000e-03     1     6     4     8
-1.5919760000e-04     1     6     4     9
-7.1670000000e-07     1     6     5     1
 3.8800000000e-07     1     6     5     2
 1.7610000000e-07     1     6     5     3
-1.7000000000e-09     1     6     5     4
 7.4295600000e-05     1     6     5     5
-2.1600000000e-07     1     6     5     7
-3.5019800000e-05     1     6     5     8
 1.5446100000e-05     1     6     5     9
-2.8488633630e-01     1     6     6     1
 9.4720863500e-02     1     6     6     2
 5.8079187900e-02     1     6     6     3
 1.6248351500e-02     1     6     6     4
 1.4514780000e-04     1     6     6     5
-1.8986944200e-02     1     6     6     7
 2.3833800000e-05     1     6     6     8
 3.6155600000e-05     1     6     6     9
 2.3642360000e-04     1     6     7     1
-1.1565890000e-04     1     6     7     2
-4.9997700000e-05     1     6     7     3
 1.0030000000e-07     1     6     7     4
-2.9200000000e-08     1     6     7     5
 1.1835540000e-04     1     6     7     7
-2.8302290000e-03     1     6     7     8
-1.1766020000e-04     1     6     7     9
 6.6328927300e-02     1     6     8     1
-3.4453056600e-02     1     6     8     2
-1.1659259400e-02     1     6     8     3
-4.2137730000e-04     1     6     8     4
-3.2663000000e-06     1     6     8     5
 1.0143833600e-02     1     6     8     7
 8.3671500000e-05     1     6     8     8
-1.9805300000e-05     1     6     8     9
 2.7514746000e-03     1     6     9     1
-1.4291526000e-03     1     6     9     2
-4.8334590000e-04     1     6     9     3
-1.7529200000e-05     1     6     9     4
-1.8506000000e-06     1     6     9     5
 4.2073760000e-04     1     6     9     7
 2.8136000000e-06     1     6     9     8
 8.8879900000e-05     1     6     9     9
-1.3346870800e-02     1     7     2     1
 6.9842419000e-03     1     7     2     2
-5.1390461000e-03     1     7     2     3
 1.0213914300e-02     1     7     2     4
 7.5716600000e-05     1     7     2     5
-4.2295800000e-05     1     7     2     6
-1.2088000000e-06     1     7     2     8
 5.0480000000e-07     1     7     2     9
 4.4884973600e-02     1     7     3     1
-3.5749086600e-02     1     7     3     2
-1.4188994500e-02     1     7     3     3
 1.8374674900e-02     1     7     3     4
 1.1771620000e-04     1     7     3     5
-7.1086900000e-05     1     7     3     6
 3.1590000000e-07     1     7     3     8
-2.3151000000e-06     1     7     3     9
-5.8518702300e-02     1     7     4     1
 3.8865012600e-02     1     7     4     2
 3.0529341600e-02     1     7     4     3
 1.4404175200e-02     1     7     4     4
-3.6869800000e-05     1     7     4     5
 1.9885600000e-05     1     7     4     6
-5.3373900000e-05     1     7     4     8
 1.1413760000e-04     1     7     4     9
-4.0579410000e-04     1     7     5     1
 2.7113930000e-04     1     7     5     2
 2.0430420000e-04     1     7     5     3
-3.6999900000e-05     1     7     5     4
 1.8987537100e-02     1     7     5     5
 2.1600000000e-07     1     7     5     6
 5.3809510000e-04     1     7     5     8
-1.2973825900e-02     1     7     5     9
 2.3642360000e-04     1     7     6     1
-1.5795470000e-04     1     7     6     2
-1.2108460000e-04     1     7     6     3
 1.9985900000e-05     1     7     6     4
 1.8680000000e-07     1     7     6     5
 1.8986944200e-02     1     7     6     6
-1.2974062600e-02     1     7     6     8
-5.3839780000e-04     1     7     6     9
-2.9411237990e-01     1     7     7     1
 8.6851240800e-02     1     7     7     2
 4.9265945200e-02     1     7     7     3
 2.6594249000e-02     1     7     7     4
 2.2379520000e-04     1     7     7     5
-1.1835540000e-04     1     7     7     6
-6.3984000000e-06     1     7     7     8
 2.3017400000e-05     1     7     7     9
 1.3049500000e-05     1     7     8     1
-1.3202700000e-05     1     7     8     2
-4.5321000000e-06     1     7     8     3
-4.1215700000e-05     1     7     8     4
 4.2054780000e-04     1     7     8     5
-1.0143833600e-02     1     7     8     6
 1.2119710500e-02     1     7     8     8
 4.7000000000e-09     1     7     8     9
-1.6583400000e-05     1     7     9     1
 2.5113000000e-05     1     7     9     2
 5.7870000000e-06     1     7     9     3
 7.1984500000e-05     1     7     9     4
-1.0142479300e-02     1     7     9     5
-4.2073760000e-04     1     7     9     6
-1.1970000000e-07     1     7     9     8
 1.2120020900e-02     1     7     9     9
-1.0094900000e-05     1     8     2     1
 8.1634000000e-06     1     8     2     2
 2.9180000000e-07     1     8     2     3
-3.9781200000e-05     1     8     2     4
 4.0420000000e-04     1     8     2     5
-9.7495533000e-03     1     8     2     6
 1.2088000000e-06     1     8     2     7
-2.4700000000e-08     1     8     2     9
-1.3275400000e-05     1     8     3     1
 1.0034000000e-06     1     8     3     2
 1.1731300000e-05     1     8     3     3
-1.2169320000e-04     1     8     3     4
 1.1747220000e-03     1     8     3     5
-2.8337420900e-02     1     8     3     6
-3.1590000000e-07     1     8     3     7
 1.6100000000e-08     1     8     3     9
 2.8194440000e-04     1     8     4     1
-1.8355480000e-04     1     8     4     2
-1.7034720000e-04     1     8     4     3
 2.9737500000e-05     1     8     4     4
-1.5943490000e-04     1     8     4     5
 3.8326813000e-03     1     8     4     6
 5.3373900000e-05     1     8     4     7
 1.0050000000e-07     1     8     4     9
-2.7493528000e-03     1     8     5     1
 1.8324775000e-03     1     8     5     2
 1.6579876000e-03     1     8     5     3
-1.4191380000e-04     1     8     5     4
 6.8920000000e-06     1     8     5     5
 3.5019800000e-05     1     8     5     6
-5.3809510000e-04     1     8     5     7
 5.8630000000e-07     1     8     5     9
 6.6328927300e-02     1     8     6     1
-4.4202609900e-02     1     8     6     2
-3.9996680300e-02     1     8     6     3
 3.4113040000e-03     1     8     6     4
 3.1753500000e-05     1     8     6     5
-2.3833800000e-05     1     8     6     6
 1.2974062600e-02     1     8     6     7
-2.2618900000e-05     1     8     6     9
 1.3049500000e-05     1     8     7     1
-1.1993900000e-05     1     8     7     2
-4.8480000000e-06     1     8     7     3
 1.2158200000e-05     1     8     7     4
-1.1754730000e-04     1     8     7     5
 2.8302290000e-03     1     8     7     6
 6.3984000000e-06     1     8     7     7
 1.2440000000e-07     1     8     7     9
-3.1494408440e-01     1     8     8     1
 1.0671868220e-01     1     8     8     2
 5.7267243800e-02     1     8     8     3
 1.9566721800e-02     1     8     8     4
 1.7528490000e-04     1     8     8     5
-8.3671500000e-05     1     8     8     6
-1.2119710500e-02     1     8     8     7
 2.2532700000e-05     1     8     8     9
-2.7330000000e-07     1     8     9     1
 2.5050000000e-07     1     8     9     2
 5.6500000000e-08     1     8     9     3
 9.8800000000e-08     1     8     9     4
 1.7817000000e-06     1     8     9     5
-2.8136000000e-06     1     8     9     6
 1.1970000000e-07     1     8     9     7
 5.4332000000e-06     1     8     9     9
 2.1410400000e-05     1     9     2     1
-1.3815200000e-05     1     9     2     2
 8.0816000000e-06     1     9     2     3
 6.8575900000e-05     1     9     2     4
-9.7492023000e-03     1     9     2     5
-4.0447210000e-04     1     9     2     6
-5.0480000000e-07     1     9     2     7
 2.4700000000e-08     1     9     2     8
-7.2150200000e-05     1     9     3     1
 6.0786000000e-05     1     9     3     2
 2.4950000000e-05     1     9     3     3
 2.1457430000e-04     1     9     3     4
-2.8338895300e-02     1     9     3     5
-1.1759919000e-03     1     9     3     6
 2.3151000000e-06     1     9     3     7
-1.6100000000e-08     1     9     3     8
-4.8575260000e-04     1     9     4     1
 3.1933850000e-04     1     9     4     2
 2.9730370000e-04     1     9     4     3
-8.2236800000e-05     1     9     4     4
 3.8311364000e-03     1     9     4     5
 1.5919760000e-04     1     9     4     6
-1.1413760000e-04     1     9     4     7
-1.0050000000e-07     1     9     4     8
 6.6327742400e-02     1     9     5     1
-4.4201403800e-02     1     9     5     2
-3.9996891000e-02     1     9     5     3
 3.4096538000e-03     1     9     5     4
 2.9474900000e-05     1     9     5     5
-1.5446100000e-05     1     9     5     6
 1.2973825900e-02     1     9     5     7
-5.8630000000e-07     1     9     5     8
 2.7514746000e-03     1     9     6     1
-1.8336247000e-03     1     9     6     2
-1.6593378000e-03     1     9     6     3
 1.4166840000e-04     1     9     6     4
-1.7296700000e-05     1     9     6     5
-3.6155600000e-05     1     9     6     6
 5.3839780000e-04     1     9     6     7
 2.2618900000e-05     1     9     6     8
-1.6583400000e-05     1     9     7     1
 2.4608200000e-05     1     9     7     2
 8.1021000000e-06     1     9     7     3
-4.2153100000e-05     1     9     7     4
 2.8313466000e-03     1     9     7     5
 1.1766020000e-04     1     9     7     6
-2.3017400000e-05     1     9     7     7
-1.2440000000e-07     1     9     7     8
-2.7330000000e-07     1     9     8     1
 2.7520000000e-07     1     9     8     2
 4.0400000000e-08     1     9     8     3
-1.7000000000e-09     1     9     8     4
 1.1954000000e-06     1     9     8     5
 1.9805300000e-05     1     9     8     6
-4.7000000000e-09     1     9     8     7
-2.2532700000e-05     1     9     8     8
-3.1495688020e-01     1     9     9     1
 1.0672735780e-01     1     9     9     2
 5.7272544100e-02     1     9     9     3
 1.9566366100e-02     1     9     9     4
 1.8673870000e-04     1     9     9     5
-8.8879900000e-05     1     9     9     6
-1.2120020900e-02     1     9     9     7
-5.4332000000e-06     1     9     9     8
-1.2739775440e-01     2     1     1     2
-3.9731303800e-02     2     1     1     3
 5.8281786000e-03     2     1     1     4
 5.0259200000e-05     2     1     1     5
-2.6503400000e-05     2     1     1     6
-1.3346870800e-02     2     1     1     7
-1.0094900000e-05     2     1     1     8
 2.1410400000e-05     2     1     1     9
-2.0289617500e-02     2     1     3     2
-7.2361192400e-02     2     1     3     3
-9.3418270000e-03     2     1     3     4
-8.2059000000e-05     2     1     3     5
 4.2408900000e-05     2     1     3     6
 3.0610040500e-02     2     1     3     7
-7.1160000000e-07     2     1     3     8
-5.2704400000e-05     2     1     3     9
 2.0885848400e-02     2     1     4     2
-5.7208923000e-03     2     1     4     3
-9.0996773100e-02     2     1     4     4
 2.5129500000e-05     2     1     4     5
-1.3427600000e-05     2     1     4     6
-2.8651098300e-02     2     1     4     7
 1.4377360000e-04     2     1     4     8
-2.5076260000e-04     2     1     4     9
 1.8828400000e-04     2     1     5     2
-4.8623200000e-05     2     1     5     3
 2.4087600000e-05     2     1     5     4
-9.4722672000e-02     2     1     5     5
-4.8220000000e-07     2     1     5     6
-1.9542270000e-04     2     1     5     7
-1.4282775000e-03     2     1     5     8
 3.4452201500e-02     2     1     5     9
-9.5572800000e-05     2     1     6     2
 2.5712400000e-05     2     1     6     3
-1.3370700000e-05     2     1     6     4
-3.8800000000e-07     2     1     6     5
-9.4720863500e-02     2     1     6     6
 1.1565890000e-04     2     1     6     7
 3.4453056600e-02     2     1     6     8
 1.4291526000e-03     2     1     6     9
-6.9842419000e-03     2     1     7     2
 3.5749086600e-02     2     1     7     3
-3.8865012600e-02     2     1     7     4
-2.7113930000e-04     2     1     7     5
 1.5795470000e-04     2     1     7     6
-8.6851240800e-02     2     1     7     7
 1.3202700000e-05     2     1     7     8
-2.5113000000e-05     2     1     7     9
-8.1634000000e-06     2     1     8     2
-1.0034000000e-06     2     1     8     3
 1.8355480000e-04     2     1     8     4
-1.8324775000e-03     2     1     8     5
 4.4202609900e-02     2     1     8     6
 1.1993900000e-05     2     1     8     7
-1.0671868220e-01     2     1     8     8
-2.5050000000e-07     2     1     8     9
 1.3815200000e-05     2     1     9     2
-6.0786000000e-05     2     1     9     3
-3.1933850000e-04     2     1     9     4
 4.4201403800e-02     2     1     9     5
 1.8336247000e-03     2     1     9     6
-2.4608200000e-05     2     1     9     7
-2.7520000000e-07     2     1     9     8
-1.0672735780e-01     2     1     9     9
 1.2739775440e-01     2     2     1     1
 2.0289617500e-02     2     2     1     3
-2.0885848400e-02     2     2     1     4
-1.8828400000e-04     2     2     1     5
 9.5572800000e-05     2     2     1     6
 6.9842419000e-03     2     2     1     7
 8.1634000000e-06     2     2     1     8
-1.3815200000e-05     2     2     1     9
 2.0289617500e-02     2     2     3     1
 1.5461112730e-01     2     2     3     3
-4.4385460000e-03     2     2     3     4
-4.0508200000e-05     2     2     3     5
 1.9736700000e-05     2     2     3     6
-1.0281223200e-02     2     2     3     7
 1.1167600000e-05     2     2     3     8
 1.4738500000e-05     2     2     3     9
-2.0885848400e-02     2     2     4     1
-4.4385460000e-03     2     2     4     3
 1.8521418820e-01     2     2     4     4
 1.8330700000e-05     2     2     4     5
-8.9113000000e-06     2     2     4     6
 1.7104933000e-02     2     2     4     7
-9.7718600000e-05     2     2     4     8
 1.6670520000e-04     2     2     4     9
-1.8828400000e-04     2     2     5     1
-4.0508200000e-05     2     2     5     3
 1.8330700000e-05     2     2     5     4
 1.8420995980e-01     2     2     5     5
 6.2800000000e-08     2     2     5     6
 1.1238870000e-04     2     2     5     7
 8.9883070000e-04     2     2     5     8
-2.1692393300e-02     2     2     5     9
 9.5572800000e-05     2     2     6     1
 1.9736700000e-05     2     2     6     3
-8.9113000000e-06     2     2     6     4
 6.2800000000e-08     2     2     6     5
 1.8420873280e-01     2     2     6     6
-6.6674900000e-05     2     2     6     7
-2.1691979100e-02     2     2     6     8
-8.9986480000e-04     2     2     6     9
 6.9842419000e-03     2     2     7     1
-1.0281223200e-02     2     2     7     3
 1.7104933000e-02     2     2     7     4
 1.1238870000e-04     2     2     7     5
-6.6674900000e-05     2     2     7     6
 1.9365543720e-01     2     2     7     7
 1.4244000000e-06     2     2     7     8
-1.0262700000e-05     2     2     7     9
 8.1634000000e-06     2     2     8     1
 1.1167600000e-05     2     2     8     3
-9.7718600000e-05     2     2     8     4
 8.9883070000e-04     2     2     8     5
-2.1691979100e-02     2     2     8     6
 1.4244000000e-06     2     2     8     7
 1.9380147990e-01     2     2     8     8
-6.6800000000e-08     2     2     8     9
-1.3815200000e-05     2     2     9     1
 1.4738500000e-05     2     2     9     3
 1.6670520000e-04     2     2     9     4
-2.1692393300e-02     2     2     9     5
-8.9986480000e-04     2     2     9     6
-1.0262700000e-05     2     2     9     7
-6.6800000000e-08     2     2     9     8
 1.9380517210e-01     2     2     9     9
 3.9731303800e-02     2     3     1     1
-2.0289617500e-02     2     3     1     2
-3.6209347000e-03     2     3     1     4
-3.3435800000e-05     2     3     1     5
 1.6696500000e-05     2     3     1     6
-5.1390461000e-03     2     3     1     7
 2.9180000000e-07     2     3     1     8
 8.0816000000e-06     2     3     1     9