&FCI NORB=  9,NELEC=  2,MS2=0,
 ORBSYM=1,1,1,1,1,1,1,1,1
 ISYM=1,
&END
 3.0349709530e-01     1     1     2     2
-1.8392690000e-04     1     1     2     3
-3.5222480000e-04     1     1     2     4
-1.1358864000e-02     1     1     2     5
 8.8420733100e-02     1     1     2     6
 8.9291400000e-05     1     1     2     7
-3.4296000000e-05     1     1     2     8
-1.3666623600e-02     1     1     2     9
-1.8392690000e-04     1     1     3     2
 3.3310752190e-01     1     1     3     3
 2.5994000000e-06     1     1     3     4
 7.6371300000e-05     1     1     3     5
-3.9388200000e-05     1     1     3     6
 5.8981769600e-02     1     1     3     7
 2.7045003500e-02     1     1     3     8
-1.0875725000e-03     1     1     3     9
-3.5222480000e-04     1     1     4     2
 2.5994000000e-06     1     1     4     3
 3.3311372230e-01     1     1     4     4
 1.4637590000e-04     1     1     4     5
 6.3146100000e-05     1     1     4     6
-2.7063352200e-02     1     1     4     7
 5.8941371800e-02     1     1     4     8
-2.0770956000e-03     1     1     4     9
-1.1358864000e-02     1     1     5     2
 7.6371300000e-05     1     1     5     3
 1.4637590000e-04     1     1     5     4
 3.3861263380e-01     1     1     5     5
 1.0826283000e-03     1     1     5     6
-1.2021900000e-04     1     1     5     7
-2.3759630000e-03     1     1     5     8
-6.2839381900e-02     1     1     5     9
 8.8420733100e-02     1     1     6     2
-3.9388200000e-05     1     1     6     3
 6.3146100000e-05     1     1     6     4
 1.0826283000e-03     1     1     6     5
 3.8557282400e-01     1     1     6     6
 1.3696900000e-05     1     1     6     7
 5.8427000000e-06     1     1     6     8
 4.6255691000e-03     1     1     6     9
 8.9291400000e-05     1     1     7     2
 5.8981769600e-02     1     1     7     3
-2.7063352200e-02     1     1     7     4
-1.2021900000e-04     1     1     7     5
 1.3696900000e-05     1     1     7     6
 3.8684876980e-01     1     1     7     7
 8.6050000000e-07     1     1     7     8
 4.4683000000e-06     1     1     7     9
-3.4296000000e-05     1     1     8     2
 2.7045003500e-02     1     1     8     3
 5.8941371800e-02     1     1     8     4
-2.3759630000e-03     1     1     8     5
 5.8427000000e-06     1     1     8     6
 8.6050000000e-07     1     1     8     7
 3.8684396530e-01     1     1     8     8
-2.9423000000e-05     1     1     8     9
-1.3666623600e-02     1     1     9     2
-1.0875725000e-03     1     1     9     3
-2.0770956000e-03     1     1     9     4
-6.2839381900e-02     1     1     9     5
 4.6255691000e-03     1     1     9     6
 4.4683000000e-06     1     1     9     7
-2.9423000000e-05     1     1     9     8
 4.1332727110e-01     1     1     9     9
-3.0349709530e-01     1     2     2     1
 6.6310990000e-04     1     2     2     3
 1.2707865000e-03     1     2     2     4
 4.0576420800e-02     1     2     2     5
-5.6447976000e-02     1     2     2     6
-6.0145400000e-05     1     2     2     7
-4.3468000000e-06     1     2     2     8
-1.1610412100e-02     1     2     2     9
 1.8392690000e-04     1     2     3     1
-8.3469991200e-02     1     2     3     3
-1.5076000000e-06     1     2     3     4
-4.2157300000e-05     1     2     3     5
-1.8487140000e-04     1     2     3     6
-4.8944624200e-02     1     2     3     7
-2.2442113800e-02     1     2     3     8
 8.9786060000e-04     1     2     3     9
 3.5222480000e-04     1     2     4     1
-1.5934000000e-06     1     2     4     3
-8.3473248600e-02     1     2     4     4
-8.0797800000e-05     1     2     4     5
-4.7168620000e-04     1     2     4     6
 2.2459359700e-02     1     2     4     7
-4.8911469700e-02     1     2     4     8
 1.7151726000e-03     1     2     4     9
 1.1358864000e-02     1     2     5     1
-4.4481700000e-05     1     2     5     3
-8.5278100000e-05     1     2     5     4
-8.6457637800e-02     1     2     5     5
-1.3977889300e-02     1     2     5     6
 8.7470000000e-05     1     2     5     7
 1.9785582000e-03     1     2     5     8
 5.1923791500e-02     1     2     5     9
-8.8420733100e-02     1     2     6     1
-3.9059300000e-05     1     2     6     3
-1.1529750000e-04     1     2     6     4
-3.2739892000e-03     1     2     6     5
-9.3098329000e-02     1     2     6     6
-1.2705000000e-05     1     2     6     7
-7.3866000000e-06     1     2     6     8
-1.0462478200e-02     1     2     6     9
-8.9291400000e-05     1     2     7     1
-1.6708918600e-02     1     2     7     3
 7.6649150000e-03     1     2     7     4
 3.1108900000e-05     1     2     7     5
-1.1278200000e-05     1     2     7     6
-9.1084765300e-02     1     2     7     7
-1.7916000000e-06     1     2     7     8
-9.4641000000e-06     1     2     7     9
 3.4296000000e-05     1     2     8     1
-7.6590768000e-03     1     2     8     3
-1.6697256200e-02     1     2     8     4
 6.6928780000e-04     1     2     8     5
 2.4153000000e-06     1     2     8     6
 3.4740000000e-07     1     2     8     7
-9.1082689700e-02     1     2     8     8
 1.2931900000e-05     1     2     8     9
 1.3666623600e-02     1     2     9     1
 2.9232450000e-04     1     2     9     3
 5.5837700000e-04     1     2     9     4
 1.6960138200e-02     1     2     9     5
-8.4487640000e-04     1     2     9     6
 4.9600000000e-08     1     2     9     7
 3.3207000000e-06     1     2     9     8
-1.0723594760e-01     1     2     9     9
 1.8392690000e-04     1     3     2     1
-6.6310990000e-04     1     3     2     2
 8.5800000000e-08     1     3     2     4
 2.3244000000e-06     1     3     2     5
-1.4581210000e-04     1     3     2     6
-3.2235705600e-02     1     3     2     7
-1.4783037000e-02     1     3     2     8
 6.0553610000e-04     1     3     2     9
-3.3310752190e-01     1     3     3     1
 8.3469991200e-02     1     3     3     2
 1.2805736000e-03     1     3     3     4
 4.1037970000e-02     1     3     3     5
 1.5979521100e-02     1     3     3     6
 1.9117510000e-04     1     3     3     7
 1.1974820000e-04     1     3     3     8
 7.9625502000e-03     1     3     3     9
-2.5994000000e-06     1     3     4     1
 1.5934000000e-06     1     3     4     2
-6.6809700000e-04     1     3     4     4
-1.3110000000e-07     1     3     4     5
 5.6845000000e-06     1     3     4     6
 1.4016450000e-04     1     3     4     7
 1.6812850000e-04     1     3     4     8
-1.3396000000e-06     1     3     4     9
-7.6371300000e-05     1     3     5     1
 4.4481700000e-05     1     3     5     2
-5.7800000000e-08     1     3     5     4
-6.7488330000e-04     1     3     5     5
 1.7239720000e-04     1     3     5     6
 5.6377830000e-03     1     3     5     7
 2.5819086000e-03     1     3     5     8
-1.5652020000e-04     1     3     5     9
 3.9388200000e-05     1     3     6     1
 3.9059300000e-05     1     3     6     2
-8.6700000000e-08     1     3     6     4
-2.5420000000e-06     1     3     6     5
-6.7140760000e-04     1     3     6     6
-4.0899134000e-03     1     3     6     7
-1.8765033000e-03     1     3     6     8
 2.6151670000e-04     1     3     6     9
-5.8981769600e-02     1     3     7     1
 1.6708918600e-02     1     3     7     2
 1.8218500000e-05     1     3     7     4
 3.7303210000e-04     1     3     7     5
 1.6549154700e-02     1     3     7     6
-7.0622690000e-04     1     3     7     7
 1.0806100000e-05     1     3     7     8
 5.4147755000e-03     1     3     7     9
-2.7045003500e-02     1     3     8     1
 7.6590768000e-03     1     3     8     2
-8.0120000000e-07     1     3     8     4
 1.7196890000e-04     1     3     8     5
 7.5880818000e-03     1     3     8     6
 1.7600000000e-05     1     3     8     7
-7.3025540000e-04     1     3     8     8
 2.4833809000e-03     1     3     8     9
 1.0875725000e-03     1     3     9     1
-2.9232450000e-04     1     3     9     2
-4.8200000000e-08     1     3     9     4
-1.5048000000e-06     1     3     9     5
-1.4396440000e-04     1     3     9     6
 3.2100552000e-03     1     3     9     7
 1.4710971000e-03     1     3     9     8
-7.7759700000e-04     1     3     9     9
 3.5222480000e-04     1     4     2     1
-1.2707865000e-03     1     4     2     2
-8.5800000000e-08     1     4     2     3
 4.4803000000e-06     1     4     2     5
-3.5638870000e-04     1     4     2     6
 1.4794444700e-02     1     4     2     7
-3.2214213500e-02     1     4     2     8
 1.1567956000e-03     1     4     2     9
-2.5994000000e-06     1     4     3     1
 1.5076000000e-06     1     4     3     2
-1.2805736000e-03     1     4     3     3
-7.3300000000e-08     1     4     3     5
 5.7712000000e-06     1     4     3     6
 1.2194600000e-04     1     4     3     7
 1.6892970000e-04     1     4     3     8
-1.2914000000e-06     1     4     3     9
-3.3311372230e-01     1     4     4     1
 8.3473248600e-02     1     4     4     2
 6.6809700000e-04     1     4     4     3
 4.1038128500e-02     1     4     4     5
 1.5988778800e-02     1     4     4     6
-1.3062540000e-04     1     4     4     7
 3.6736670000e-04     1     4     4     8
 7.9563848000e-03     1     4     4     9
-1.4637590000e-04     1     4     5     1
 8.5278100000e-05     1     4     5     2
 5.7800000000e-08     1     4     5     3
-1.2935773000e-03     1     4     5     5
 3.4943000000e-04     1     4     5     6
-2.5915958000e-03     1     4     5     7
 5.6284943000e-03     1     4     5     8
-3.0001110000e-04     1     4     5     9
-6.3146100000e-05     1     4     6     1
 1.1529750000e-04     1     4     6     2
 8.6700000000e-08     1     4     6     3
-4.1611000000e-06     1     4     6     5
-1.2466623000e-03     1     4     6     6
 1.8782904000e-03     1     4     6     7
-4.0867243000e-03     1     4     6     8
 5.1561320000e-04     1     4     6     9
 2.7063352200e-02     1     4     7     1
-7.6649150000e-03     1     4     7     2
-1.8218500000e-05     1     4     7     3
-1.7166030000e-04     1     4     7     5
-7.5936542000e-03     1     4     7     6
-1.4104456000e-03     1     4     7     7
-1.7172600000e-05     1     4     7     8
-2.4844910000e-03     1     4     7     9
-5.8941371800e-02     1     4     8     1
 1.6697256200e-02     1     4     8     2
 8.0120000000e-07     1     4     8     3
 3.7333870000e-04     1     4     8     5
 1.6538448700e-02     1     4     8     6
 6.6771000000e-06     1     4     8     7
-1.3793733000e-03     1     4     8     8
 5.4112647000e-03     1     4     8     9
 2.0770956000e-03     1     4     9     1
-5.5837700000e-04     1     4     9     2
 4.8200000000e-08     1     4     9     3
-2.8056000000e-06     1     4     9     5
-2.6504190000e-04     1     4     9     6
-1.4733010000e-03     1     4     9     7
 3.2072181000e-03     1     4     9     8
-1.4898008000e-03     1     4     9     9
 1.1358864000e-02     1     5     2     1
-4.0576420800e-02     1     5     2     2
-2.3244000000e-06     1     5     2     3
-4.4803000000e-06     1     5     2     4
-1.0703900100e-02     1     5     2     6
 5.6361100000e-05     1     5     2     7
 1.3092704000e-03     1     5     2     8
 3.4963653300e-02     1     5     2     9
-7.6371300000e-05     1     5     3     1
 4.2157300000e-05     1     5     3     2
-4.1037970000e-02     1     5     3     3
 7.3300000000e-08     1     5     3     4
 1.7493920000e-04     1     5     3     6
 5.2647509000e-03     1     5     3     7
 2.4099397000e-03     1     5     3     8
-1.5501540000e-04     1     5     3     9
-1.4637590000e-04     1     5     4     1
 8.0797800000e-05     1     5     4     2
 1.3110000000e-07     1     5     4     3
-4.1038128500e-02     1     5     4     4
 3.5359110000e-04     1     5     4     6
-2.4199355000e-03     1     5     4     7
 5.2551556000e-03     1     5     4     8
-2.9720550000e-04     1     5     4     9
-3.3861263380e-01     1     5     5     1
 8.6457637800e-02     1     5     5     2
 6.7488330000e-04     1     5     5     3
 1.2935773000e-03     1     5     5     4
 2.7022567200e-02     1     5     5     6
 3.9399000000e-06     1     5     5     7
-4.5724820000e-04     1     5     5     8
-1.7110455000e-03     1     5     5     9
-1.0826283000e-03     1     5     6     1
 3.2739892000e-03     1     5     6     2
 2.5420000000e-06     1     5     6     3
 4.1611000000e-06     1     5     6     4
-4.0125626800e-02     1     5     6     6
 1.2984500000e-05     1     5     6     7
 1.6479820000e-04     1     5     6     8
 1.5615225600e-02     1     5     6     9
 1.2021900000e-04     1     5     7     1
-3.1108900000e-05     1     5     7     2
-3.7303210000e-04     1     5     7     3
 1.7166030000e-04     1     5     7     4
-3.0141800000e-05     1     5     7     6
-4.4935712400e-02     1     5     7     7
 8.2430000000e-07     1     5     7     8
 4.9429000000e-06     1     5     7     9
 2.3759630000e-03     1     5     8     1
-6.6928780000e-04     1     5     8     2
-1.7196890000e-04     1     5     8     3
-3.7333870000e-04     1     5     8     4
-6.5958390000e-04     1     5     8     6
-1.2212000000e-06     1     5     8     7
-4.4934591900e-02     1     5     8     8
-1.8668300000e-04     1     5     8     9
 6.2839381900e-02     1     5     9     1
-1.6960138200e-02     1     5     9     2
 1.5048000000e-06     1     5     9     3
 2.8056000000e-06     1     5     9     4
-7.8819720000e-03     1     5     9     6
-1.5370200000e-05     1     5     9     7
-9.3499300000e-05     1     5     9     8
-4.6373828800e-02     1     5     9     9
-8.8420733100e-02     1     6     2     1
 5.6447976000e-02     1     6     2     2
 1.4581210000e-04     1     6     2     3
 3.5638870000e-04     1     6     2     4
 1.0703900100e-02     1     6     2     5
-1.4268000000e-06     1     6     2     7
-9.8019000000e-06     1     6     2     8
-9.6176018000e-03     1     6     2     9
 3.9388200000e-05     1     6     3     1
 1.8487140000e-04     1     6     3     2
-1.5979521100e-02     1     6     3     3
-5.7712000000e-06     1     6     3     4
-1.7493920000e-04     1     6     3     5
-2.0639068100e-02     1     6     3     7
-9.4645851000e-03     1     6     3     8
 4.0548110000e-04     1     6     3     9
-6.3146100000e-05     1     6     4     1
 4.7168620000e-04     1     6     4     2
-5.6845000000e-06     1     6     4     3
-1.5988778800e-02     1     6     4     4
-3.5359110000e-04     1     6     4     5
 9.4719446000e-03     1     6     4     7
-2.0625173000e-02     1     6     4     8
 7.8065510000e-04     1     6     4     9
-1.0826283000e-03     1     6     5     1
 1.3977889300e-02     1     6     5     2
-1.7239720000e-04     1     6     5     3
-3.4943000000e-04     1     6     5     4
-2.7022567200e-02     1     6     5     5
 4.3126300000e-05     1     6     5     7
 8.2438210000e-04     1     6     5     8
 2.3497197600e-02     1     6     5     9
-3.8557282400e-01     1     6     6     1
 9.3098329000e-02     1     6     6     2
 6.7140760000e-04     1     6     6     3
 1.2466623000e-03     1     6     6     4
 4.0125626800e-02     1     6     6     5
 7.5626000000e-06     1     6     6     7
 6.5356000000e-06     1     6     6     8
-5.7709000000e-05     1     6     6     9
-1.3696900000e-05     1     6     7     1
 1.1278200000e-05     1     6     7     2
-1.6549154700e-02     1     6     7     3
 7.5936542000e-03     1     6     7     4
 3.0141800000e-05     1     6     7     5
-8.3294922000e-03     1     6     7     7
-5.6290000000e-07     1     6     7     8
-2.1011000000e-06     1     6     7     9
-5.8427000000e-06     1     6     8     1
-2.4153000000e-06     1     6     8     2
-7.5880818000e-03     1     6     8     3
-1.6538448700e-02     1     6     8     4
 6.5958390000e-04     1     6     8     5
-3.6440000000e-07     1     6     8     7
-8.3284072000e-03     1     6     8     8
 8.3939000000e-06     1     6     8     9
-4.6255691000e-03     1     6     9     1
 8.4487640000e-04     1     6     9     2
 1.4396440000e-04     1     6     9     3
 2.6504190000e-04     1     6     9     4
 7.8819720000e-03     1     6     9     5
 5.4990000000e-07     1     6     9     7
 1.9354000000e-06     1     6     9     8
-1.1475204000e-02     1     6     9     9
-8.9291400000e-05     1     7     2     1
 6.0145400000e-05     1     7     2     2
 3.2235705600e-02     1     7     2     3
-1.4794444700e-02     1     7     2     4
-5.6361100000e-05     1     7     2     5
 1.4268000000e-06     1     7     2     6
-2.1390000000e-06     1     7     2     8
-9.5137000000e-06     1     7     2     9
-5.8981769600e-02     1     7     3     1
 4.8944624200e-02     1     7     3     2
-1.9117510000e-04     1     7     3     3
-1.2194600000e-04     1     7     3     4
-5.2647509000e-03     1     7     3     5
 2.0639068100e-02     1     7     3     6
-6.7939000000e-06     1     7     3     8
 2.2047203000e-03     1     7     3     9
 2.7063352200e-02     1     7     4     1
-2.2459359700e-02     1     7     4     2
-1.4016450000e-04     1     7     4     3
 1.3062540000e-04     1     7     4     4
 2.4199355000e-03     1     7     4     5
-9.4719446000e-03     1     7     4     6
-2.3849700000e-05     1     7     4     8
-1.0111900000e-03     1     7     4     9
 1.2021900000e-04     1     7     5     1
-8.7470000000e-05     1     7     5     2
-5.6377830000e-03     1     7     5     3
 2.5915958000e-03     1     7     5     4
-3.9399000000e-06     1     7     5     5
-4.3126300000e-05     1     7     5     6
 2.0455000000e-06     1     7     5     8
 2.0313100000e-05     1     7     5     9
-1.3696900000e-05     1     7     6     1
 1.2705000000e-05     1     7     6     2
 4.0899134000e-03     1     7     6     3
-1.8782904000e-03     1     7     6     4
-1.2984500000e-05     1     7     6     5
-7.5626000000e-06     1     7     6     6
-1.9850000000e-07     1     7     6     8
-2.6510000000e-06     1     7     6     9
-3.8684876980e-01     1     7     7     1
 9.1084765300e-02     1     7     7     2
 7.0622690000e-04     1     7     7     3
 1.4104456000e-03     1     7     7     4
 4.4935712400e-02     1     7     7     5
 8.3294922000e-03     1     7     7     6
 1.1220700000e-05     1     7     7     8
 2.0200353000e-03     1     7     7     9
-8.6050000000e-07     1     7     8     1
-3.4740000000e-07     1     7     8     2
-1.7600000000e-05     1     7     8     3
-6.6771000000e-06     1     7     8     4
 1.2212000000e-06     1     7     8     5
 3.6440000000e-07     1     7     8     6
-1.0097400000e-05     1     7     8     8
 2.1100000000e-08     1     7     8     9
-4.4683000000e-06     1     7     9     1
-4.9600000000e-08     1     7     9     2
-3.2100552000e-03     1     7     9     3
 1.4733010000e-03     1     7     9     4
 1.5370200000e-05     1     7     9     5
-5.4990000000e-07     1     7     9     6
-2.1280000000e-07     1     7     9     8
-1.2925100000e-05     1     7     9     9
 3.4296000000e-05     1     8     2     1
 4.3468000000e-06     1     8     2     2
 1.4783037000e-02     1     8     2     3
 3.2214213500e-02     1     8     2     4
-1.3092704000e-03     1     8     2     5
 9.8019000000e-06     1     8     2     6
 2.1390000000e-06     1     8     2     7
 9.6112000000e-06     1     8     2     9
-2.7045003500e-02     1     8     3     1
 2.2442113800e-02     1     8     3     2
-1.1974820000e-04     1     8     3     3
-1.6892970000e-04     1     8     3     4
-2.4099397000e-03     1     8     3     5
 9.4645851000e-03     1     8     3     6
 6.7939000000e-06     1     8     3     7
 1.0122838000e-03     1     8     3     9
-5.8941371800e-02     1     8     4     1
 4.8911469700e-02     1     8     4     2
-1.6812850000e-04     1     8     4     3
-3.6736670000e-04     1     8     4     4
-5.2551556000e-03     1     8     4     5
 2.0625173000e-02     1     8     4     6
 2.3849700000e-05     1     8     4     7
 2.2040466000e-03     1     8     4     9
 2.3759630000e-03     1     8     5     1
-1.9785582000e-03     1     8     5     2
-2.5819086000e-03     1     8     5     3
-5.6284943000e-03     1     8     5     4
 4.5724820000e-04     1     8     5     5
-8.2438210000e-04     1     8     5     6
-2.0455000000e-06     1     8     5     7
-9.3183700000e-05     1     8     5     9
-5.8427000000e-06     1     8     6     1
 7.3866000000e-06     1     8     6     2
 1.8765033000e-03     1     8     6     3
 4.0867243000e-03     1     8     6     4
-1.6479820000e-04     1     8     6     5
-6.5356000000e-06     1     8     6     6
 1.9850000000e-07     1     8     6     7
 6.4585000000e-06     1     8     6     9
-8.6050000000e-07     1     8     7     1
 1.7916000000e-06     1     8     7     2
-1.0806100000e-05     1     8     7     3
 1.7172600000e-05     1     8     7     4
-8.2430000000e-07     1     8     7     5
 5.6290000000e-07     1     8     7     6
-1.1220700000e-05     1     8     7     7
 2.3390000000e-07     1     8     7     9
-3.8684396530e-01     1     8     8     1
 9.1082689700e-02     1     8     8     2
 7.3025540000e-04     1     8     8     3
 1.3793733000e-03     1     8     8     4
 4.4934591900e-02     1     8     8     5
 8.3284072000e-03     1     8     8     6
 1.0097400000e-05     1     8     8     7
 2.0202484000e-03     1     8     8     9
 2.9423000000e-05     1     8     9     1
-3.3207000000e-06     1     8     9     2
-1.4710971000e-03     1     8     9     3
-3.2072181000e-03     1     8     9     4
 9.3499300000e-05     1     8     9     5
-1.9354000000e-06     1     8     9     6
 2.1280000000e-07     1     8     9     7
-7.6242000000e-06     1     8     9     9
 1.3666623600e-02     1     9     2     1
 1.1610412100e-02     1     9     2     2
-6.0553610000e-04     1     9     2     3
-1.1567956000e-03     1     9     2     4
-3.4963653300e-02     1     9     2     5
 9.6176018000e-03     1     9     2     6
 9.5137000000e-06     1     9     2     7
-9.6112000000e-06     1     9     2     8
 1.0875725000e-03     1     9     3     1
-8.9786060000e-04     1     9     3     2
-7.9625502000e-03     1     9     3     3
 1.2914000000e-06     1     9     3     4
 1.5501540000e-04     1     9     3     5
-4.0548110000e-04     1     9     3     6
-2.2047203000e-03     1     9     3     7
-1.0122838000e-03     1     9     3     8
 2.0770956000e-03     1     9     4     1
-1.7151726000e-03     1     9     4     2
 1.3396000000e-06     1     9     4     3
-7.9563848000e-03     1     9     4     4
 2.9720550000e-04     1     9     4     5
-7.8065510000e-04     1     9     4     6
 1.0111900000e-03     1     9     4     7
-2.2040466000e-03     1     9     4     8
 6.2839381900e-02     1     9     5     1
-5.1923791500e-02     1     9     5     2
 1.5652020000e-04     1     9     5     3
 3.0001110000e-04     1     9     5     4
 1.7110455000e-03     1     9     5     5
-2.3497197600e-02     1     9     5     6
-2.0313100000e-05     1     9     5     7
 9.3183700000e-05     1     9     5     8
-4.6255691000e-03     1     9     6     1
 1.0462478200e-02     1     9     6     2
-2.6151670000e-04     1     9     6     3
-5.1561320000e-04     1     9     6     4
-1.5615225600e-02     1     9     6     5
 5.7709000000e-05     1     9     6     6
 2.6510000000e-06     1     9     6     7
-6.4585000000e-06     1     9     6     8
-4.4683000000e-06     1     9     7     1
 9.4641000000e-06     1     9     7     2
-5.4147755000e-03     1     9     7     3
 2.4844910000e-03     1     9     7     4
-4.9429000000e-06     1     9     7     5
 2.1011000000e-06     1     9     7     6
-2.0200353000e-03     1     9     7     7
-2.3390000000e-07     1     9     7     8
 2.9423000000e-05     1     9     8     1
-1.2931900000e-05     1     9     8     2
-2.4833809000e-03     1     9     8     3
-5.4112647000e-03     1     9     8     4
 1.8668300000e-04     1     9     8     5
-8.3939000000e-06     1     9     8     6
-2.1100000000e-08     1     9     8     7
-2.0202484000e-03     1     9     8     8
-4.1332727110e-01     1     9     9     1
 1.0723594760e-01     1     9     9     2
 7.7759700000e-04     1     9     9     3
 1.4898008000e-03     1     9     9     4
 4.6373828800e-02     1     9     9     5
 1.1475204000e-02     1     9     9     6
 1.2925100000e-05     1     9     9     7
 7.6242000000e-06     1     9     9     8
-3.0349709530e-01     2     1     1     2
 1.8392690000e-04     2     1     1     3
 3.5222480000e-04     2     1     1     4
 1.1358864000e-02     2     1     1     5
-8.8420733100e-02     2     1     1     6
-8.9291400000e-05     2     1     1     7
 3.4296000000e-05     2     1     1     8
 1.3666623600e-02     2     1     1     9
 6.6310990000e-04     2     1     3     2
-8.3469991200e-02     2     1     3     3
-1.5934000000e-06     2     1     3     4
-4.4481700000e-05     2     1     3     5
-3.9059300000e-05     2     1     3     6
-1.6708918600e-02     2     1     3     7
-7.6590768000e-03     2     1     3     8
 2.9232450000e-04     2     1     3     9
 1.2707865000e-03     2     1     4     2
-1.5076000000e-06     2     1     4     3
-8.3473248600e-02     2     1     4     4
-8.5278100000e-05     2     1     4     5
-1.1529750000e-04     2     1     4     6
 7.6649150000e-03     2     1     4     7
-1.6697256200e-02     2     1     4     8
 5.5837700000e-04     2     1     4     9
 4.0576420800e-02     2     1     5     2
-4.2157300000e-05     2     1     5     3
-8.0797800000e-05     2     1     5     4
-8.6457637800e-02     2     1     5     5
-3.2739892000e-03     2     1     5     6
 3.1108900000e-05     2     1     5     7
 6.6928780000e-04     2     1     5     8
 1.6960138200e-02     2     1     5     9
-5.6447976000e-02     2     1     6     2
-1.8487140000e-04     2     1     6     3
-4.7168620000e-04     2     1     6     4
-1.3977889300e-02     2     1     6     5
-9.3098329000e-02     2     1     6     6
-1.1278200000e-05     2     1     6     7
 2.4153000000e-06     2     1     6     8
-8.4487640000e-04     2     1     6     9
-6.0145400000e-05     2     1     7     2
-4.8944624200e-02     2     1     7     3
 2.2459359700e-02     2     1     7     4
 8.7470000000e-05     2     1     7     5
-1.2705000000e-05     2     1     7     6
-9.1084765300e-02     2     1     7     7
 3.4740000000e-07     2     1     7     8
 4.9600000000e-08     2     1     7     9
-4.3468000000e-06     2     1     8     2
-2.2442113800e-02     2     1     8     3
-4.8911469700e-02     2     1     8     4
 1.9785582000e-03     2     1     8     5
-7.3866000000e-06     2     1     8     6
-1.7916000000e-06     2     1     8     7
-9.1082689700e-02     2     1     8     8
 3.3207000000e-06     2     1     8     9
-1.1610412100e-02     2     1     9     2
 8.9786060000e-04     2     1     9     3
 1.7151726000e-03     2     1     9     4
 5.1923791500e-02     2     1     9     5
-1.0462478200e-02     2     1     9     6
-9.4641000000e-06     2     1     9     7
 1.2931900000e-05     2     1     9     8
-1.0723594760e-01     2     1     9     9
 3.0349709530e-01     2     2     1     1
-6.6310990000e-04     2     2     1     3
-1.2707865000e-03     2     2     1     4
-4.0576420800e-02     2     2     1     5
 5.6447976000e-02     2     2     1     6
 6.0145400000e-05     2     2     1     7
 4.3468000000e-06     2     2     1     8
 1.1610412100e-02     2     2     1     9
-6.6310990000e-04     2     2     3     1
 3.4591258240e-01     2     2     3     3
 3.6909000000e-06     2     2     3     4
 1.0954970000e-04     2     2     3     5
-7.6254400000e-05     2     2     3     6
 6.6368844900e-02     2     2     3     7
 3.0432837200e-02     2     2     3     8
-1.1493640000e-03     2     2     3     9
-1.2707865000e-03     2     2     4     1
 3.6909000000e-06     2     2     4     3
 3.4592061570e-01     2     2     4     4
 2.0995820000e-04     2     2     4     5
 1.0079900000e-05     2     2     4     6
-3.0453513700e-02     2     2     4     7
 6.6322943300e-02     2     2     4     8
-2.1946971000e-03     2     2     4     9
-4.0576420800e-02     2     2     5     1
 1.0954970000e-04     2     2     5     3
 2.0995820000e-04     2     2     5     4
 3.5355873520e-01     2     2     5     5
-7.2602330000e-04     2     2     5     6
-1.3629560000e-04     2     2     5     7
-2.6553792000e-03     2     2     5     8
-6.6073171700e-02     2     2     5     9
 5.6447976000e-02     2     2     6     1
-7.6254400000e-05     2     2     6     3
 1.0079900000e-05     2     2     6     4
-7.2602330000e-04     2     2     6     5
 3.1148327830e-01     2     2     6     6
-1.7257000000e-05     2     2     6     7
 1.7738000000e-06     2     2     6     8
 9.8202470000e-04     2     2     6     9
 6.0145400000e-05     2     2     7     1
 6.6368844900e-02     2     2     7     3
-3.0453513700e-02     2     2     7     4
-1.3629560000e-04     2     2     7     5
-1.7257000000e-05     2     2     7     6
 3.3995184290e-01     2     2     7     7
 4.8660000000e-07     2     2     7     8
 1.2356000000e-06     2     2     7     9
 4.3468000000e-06     2     2     8     1
 3.0432837200e-02     2     2     8     3
 6.6322943300e-02     2     2     8     4
-2.6553792000e-03     2     2     8     5
 1.7738000000e-06     2     2     8     6
 4.8660000000e-07     2     2     8     7
 3.3994728400e-01     2     2     8     8
-2.1170100000e-05     2     2     8     9
 1.1610412100e-02     2     2     9     1
-1.1493640000e-03     2     2     9     3
-2.1946971000e-03     2     2     9     4
-6.6073171700e-02     2     2     9     5
 9.8202470000e-04     2     2     9     6
 1.2356000000e-06     2     2     9     7
-2.1170100000e-05     2     2     9     8
 3.6314166620e-01     2     2     9     9
-1.8392690000e-04     2     3     1     1
 6.6310990000e-04     2     3     1     2
-8.5800000000e-08     2     3     1     4
-2.3244000000e-06     2     3     1     5
 1.4581210000e-04     2     3     1     6
 3.2235705600e-02     2     3     1     7
 1.4783037000e-02     2     3     1     8
-6.0553610000e-04     2     3     1     9