&FCI NORB=  9,NELEC=  2,MS2=0,
 ORBSYM=1,1,1,1,1,1,1,1,1
 ISYM=1,
&END
 1.7485825240e-01     1     1     2     2
-9.9826105000e-03     1     1     2     3
 9.7563700000e-05     1     1     2     4
-1.7106170000e-04     1     1     2     5
-5.4835440300e-02     1     1     2     6
-2.1629989800e-02     1     1     2     7
 4.3239240000e-04     1     1     2     8
 1.4944990000e-04     1     1     2     9
-9.9826105000e-03     1     1     3     2
 2.8402341720e-01     1     1     3     3
 4.5159000000e-06     1     1     3     4
-1.0863000000e-05     1     1     3     5
-2.3407854000e-03     1     1     3     6
 6.1567295600e-02     1     1     3     7
-1.0276241000e-03     1     1     3     8
-3.6340790000e-04     1     1     3     9
 9.7563700000e-05     1     1     4     2
 4.5159000000e-06     1     1     4     3
 2.8924052310e-01     1     1     4     4
-1.8600000000e-08     1     1     4     5
 2.5712800000e-05     1     1     4     6
 2.9252080000e-04     1     1     4     7
 3.4936352700e-02     1     1     4     8
-5.3866882700e-02     1     1     4     9
-1.7106170000e-04     1     1     5     2
-1.0863000000e-05     1     1     5     3
-1.8600000000e-08     1     1     5     4
 2.8922560230e-01     1     1     5     5
-4.2789900000e-05     1     1     5     6
-1.1808155000e-03     1     1     5     7
-5.3867270600e-02     1     1     5     8
-3.4946548200e-02     1     1     5     9
-5.4835440300e-02     1     1     6     2
-2.3407854000e-03     1     1     6     3
 2.5712800000e-05     1     1     6     4
-4.2789900000e-05     1     1     6     5
 2.8841865620e-01     1     1     6     6
-2.4173677800e-02     1     1     6     7
 5.5197440000e-04     1     1     6     8
 1.9119900000e-04     1     1     6     9
-2.1629989800e-02     1     1     7     2
 6.1567295600e-02     1     1     7     3
 2.9252080000e-04     1     1     7     4
-1.1808155000e-03     1     1     7     5
-2.4173677800e-02     1     1     7     6
 3.0644467640e-01     1     1     7     7
-5.1921000000e-06     1     1     7     8
-6.1738000000e-06     1     1     7     9
 4.3239240000e-04     1     1     8     2
-1.0276241000e-03     1     1     8     3
 3.4936352700e-02     1     1     8     4
-5.3867270600e-02     1     1     8     5
 5.5197440000e-04     1     1     8     6
-5.1921000000e-06     1     1     8     7
 3.0475687820e-01     1     1     8     8
-7.4678000000e-06     1     1     8     9
 1.4944990000e-04     1     1     9     2
-3.6340790000e-04     1     1     9     3
-5.3866882700e-02     1     1     9     4
-3.4946548200e-02     1     1     9     5
 1.9119900000e-04     1     1     9     6
-6.1738000000e-06     1     1     9     7
-7.4678000000e-06     1     1     9     8
 3.0480467000e-01     1     1     9     9
-1.7485825240e-01     1     2     2     1
-1.8775666300e-02     1     2     2     3
-4.4347100000e-05     1     2     2     4
 4.5890400000e-05     1     2     2     5
 3.9062895900e-02     1     2     2     6
 7.9930228000e-03     1     2     2     7
-1.7411110000e-04     1     2     2     8
-5.4335200000e-05     1     2     2     9
 9.9826105000e-03     1     2     3     1
-8.8302824500e-02     1     2     3     3
 9.2444000000e-06     1     2     3     4
-1.8126600000e-05     1     2     3     5
-3.4575542000e-03     1     2     3     6
-4.4711318600e-02     1     2     3     7
 7.4295240000e-04     1     2     3     8
 2.6318260000e-04     1     2     3     9
-9.7563700000e-05     1     2     4     1
 9.8440000000e-07     1     2     4     3
-8.7807229600e-02     1     2     4     4
-2.6400000000e-08     1     2     4     5
-3.7172300000e-05     1     2     4     6
-2.4246380000e-04     1     2     4     7
-2.7015629600e-02     1     2     4     8
 4.1655428400e-02     1     2     4     9
 1.7106170000e-04     1     2     5     1
-4.9564000000e-06     1     2     5     3
 1.9000000000e-08     1     2     5     4
-8.7799351100e-02     1     2     5     5
 5.4306000000e-05     1     2     5     6
 9.4100410000e-04     1     2     5     7
 4.1650727600e-02     1     2     5     8
 2.7020724600e-02     1     2     5     9
 5.4835440300e-02     1     2     6     1
 1.1947877000e-03     1     2     6     3
-4.0169600000e-05     1     2     6     4
 6.5737500000e-05     1     2     6     5
-7.1082521100e-02     1     2     6     6
 2.7605687600e-02     1     2     6     7
-6.1407140000e-04     1     2     6     8
-2.0597240000e-04     1     2     6     9
 2.1629989800e-02     1     2     7     1
-2.8086512000e-02     1     2     7     3
-1.6156580000e-04     1     2     7     4
 6.2283540000e-04     1     2     7     5
 1.7746427300e-02     1     2     7     6
-8.5292149900e-02     1     2     7     7
-2.8794600000e-05     1     2     7     8
-1.3370700000e-05     1     2     7     9
-4.3239240000e-04     1     2     8     1
 4.6570410000e-04     1     2     8     3
-1.7711393700e-02     1     2     8     4
 2.7310234600e-02     1     2     8     5
-3.8408880000e-04     1     2     8     6
-3.2430700000e-05     1     2     8     7
-8.5835097800e-02     1     2     8     8
 3.8833000000e-06     1     2     8     9
-1.4944990000e-04     1     2     9     1
 1.6309490000e-04     1     2     9     3
 2.7310947900e-02     1     2     9     4
 1.7716959200e-02     1     2     9     5
-1.3509770000e-04     1     2     9     6
-1.2895000000e-05     1     2     9     7
 4.2287000000e-06     1     2     9     8
-8.5867077200e-02     1     2     9     9
 9.9826105000e-03     1     3     2     1
 1.8775666300e-02     1     3     2     2
 8.2600000000e-06     1     3     2     4
-1.3170200000e-05     1     3     2     5
-4.6523419000e-03     1     3     2     6
-1.6624806600e-02     1     3     2     7
 2.7724830000e-04     1     3     2     8
 1.0008770000e-04     1     3     2     9
-2.8402341720e-01     1     3     3     1
 8.8302824500e-02     1     3     3     2
 8.4218200000e-05     1     3     3     4
-1.8985530000e-04     1     3     3     5
-3.1852284100e-02     1     3     3     6
 2.0268982700e-02     1     3     3     7
-3.3694480000e-04     1     3     3     8
-1.3072410000e-04     1     3     3     9
-4.5159000000e-06     1     3     4     1
-9.8440000000e-07     1     3     4     2
 4.0008812100e-02     1     3     4     4
 1.4200000000e-08     1     3     4     5
 8.1369000000e-06     1     3     4     6
 6.8662000000e-06     1     3     4     7
 4.1191895000e-03     1     3     4     8
-6.3518402000e-03     1     3     4     9
 1.0863000000e-05     1     3     5     1
 4.9564000000e-06     1     3     5     2
 2.7600000000e-08     1     3     5     4
 4.0007546000e-02     1     3     5     5
-1.4204800000e-05     1     3     5     6
-9.2865800000e-05     1     3     5     7
-6.3549662000e-03     1     3     5     8
-4.1244221000e-03     1     3     5     9
 2.3407854000e-03     1     3     6     1
-1.1947877000e-03     1     3     6     2
 6.8552000000e-06     1     3     6     4
-1.0836600000e-05     1     3     6     5
 3.7078469800e-02     1     3     6     6
 1.4857784200e-02     1     3     6     7
-2.2834880000e-04     1     3     6     8
-7.9658500000e-05     1     3     6     9
-6.1567295600e-02     1     3     7     1
 2.8086512000e-02     1     3     7     2
 3.6063300000e-05     1     3     7     4
-1.1201190000e-04     1     3     7     5
-1.0353464900e-02     1     3     7     6
 4.0871474500e-02     1     3     7     7
 1.5074000000e-05     1     3     7     8
-7.3651000000e-06     1     3     7     9
 1.0276241000e-03     1     3     8     1
-4.6570410000e-04     1     3     8     2
 2.3658598000e-03     1     3     8     4
-3.6488726000e-03     1     3     8     5
 1.7889530000e-04     1     3     8     6
-6.4928000000e-06     1     3     8     7
 4.0538175900e-02     1     3     8     8
-7.1220000000e-07     1     3     8     9
 3.6340790000e-04     1     3     9     1
-1.6309490000e-04     1     3     9     2
-3.6477900000e-03     1     3     9     4
-2.3670837000e-03     1     3     9     5
 6.5511800000e-05     1     3     9     6
-3.7247000000e-06     1     3     9     7
-1.2151000000e-06     1     3     9     8
 4.0544417100e-02     1     3     9     9
-9.7563700000e-05     1     4     2     1
 4.4347100000e-05     1     4     2     2
-8.2600000000e-06     1     4     2     3
-4.5400000000e-08     1     4     2     5
 2.9973000000e-06     1     4     2     6
-8.0898000000e-05     1     4     2     7
-9.3042359000e-03     1     4     2     8
 1.4344480500e-02     1     4     2     9
-4.5159000000e-06     1     4     3     1
-9.2444000000e-06     1     4     3     2
-8.4218200000e-05     1     4     3     3
-1.3400000000e-08     1     4     3     5
 1.2817000000e-06     1     4     3     6
-2.9197100000e-05     1     4     3     7
 1.7533297000e-03     1     4     3     8
-2.7040502000e-03     1     4     3     9
-2.8924052310e-01     1     4     4     1
 8.7807229600e-02     1     4     4     2
-4.0008812100e-02     1     4     4     3
-1.9194870000e-04     1     4     4     5
-3.1939823900e-02     1     4     4     6
 9.8582254000e-03     1     4     4     7
-2.1938840000e-04     1     4     4     8
-8.4920000000e-06     1     4     4     9
 1.8600000000e-08     1     4     5     1
-1.9000000000e-08     1     4     5     2
-2.7600000000e-08     1     4     5     3
-8.5062200000e-05     1     4     5     5
 7.2000000000e-08     1     4     5     6
 1.3877000000e-06     1     4     5     7
 8.3028500000e-05     1     4     5     8
-2.5659300000e-05     1     4     5     9
-2.5712800000e-05     1     4     6     1
 4.0169600000e-05     1     4     6     2
-6.8552000000e-06     1     4     6     3
 3.2100000000e-08     1     4     6     5
-8.3979400000e-05     1     4     6     6
 1.1670950000e-04     1     4     6     7
 1.1540894200e-02     1     4     6     8
-1.7797850100e-02     1     4     6     9
-2.9252080000e-04     1     4     7     1
 1.6156580000e-04     1     4     7     2
-3.6063300000e-05     1     4     7     3
 1.6810000000e-07     1     4     7     5
-3.5808200000e-05     1     4     7     6
-6.6812500000e-05     1     4     7     7
 1.3921780000e-04     1     4     7     8
-2.1434630000e-04     1     4     7     9
-3.4936352700e-02     1     4     8     1
 1.7711393700e-02     1     4     8     2
-2.3658598000e-03     1     4     8     3
-3.9695000000e-06     1     4     8     5
-4.9676918000e-03     1     4     8     6
 5.2439590000e-04     1     4     8     7
-6.2143500000e-05     1     4     8     8
-1.6168000000e-06     1     4     8     9
 5.3866882700e-02     1     4     9     1
-2.7310947900e-02     1     4     9     2
 3.6477900000e-03     1     4     9     3
 3.5948800000e-05     1     4     9     5
 7.6589541000e-03     1     4     9     6
-8.0813980000e-04     1     4     9     7
-6.6459000000e-06     1     4     9     8
-6.0159800000e-05     1     4     9     9
 1.7106170000e-04     1     5     2     1
-4.5890400000e-05     1     5     2     2
 1.3170200000e-05     1     5     2     3
 4.5400000000e-08     1     5     2     4
-1.1431500000e-05     1     5     2     6
 3.1816870000e-04     1     5     2     7
 1.4340493000e-02     1     5     2     8
 9.3037654000e-03     1     5     2     9
 1.0863000000e-05     1     5     3     1
 1.8126600000e-05     1     5     3     2
 1.8985530000e-04     1     5     3     3
 1.3400000000e-08     1     5     3     4
-3.3682000000e-06     1     5     3     6
 1.9146100000e-05     1     5     3     7
-2.7060936000e-03     1     5     3     8
-1.7573384000e-03     1     5     3     9
 1.8600000000e-08     1     5     4     1
 2.6400000000e-08     1     5     4     2
-1.4200000000e-08     1     5     4     3
 1.9194870000e-04     1     5     4     4
 3.9900000000e-08     1     5     4     6
 1.2196000000e-06     1     5     4     7
 8.6998000000e-05     1     5     4     8
-6.1608100000e-05     1     5     4     9
-2.8922560230e-01     1     5     5     1
 8.7799351100e-02     1     5     5     2
-4.0007546000e-02     1     5     5     3
 8.5062200000e-05     1     5     5     4
-3.1935930100e-02     1     5     5     6
 9.8559137000e-03     1     5     5     7
-2.9939770000e-04     1     5     5     8
-1.4872020000e-04     1     5     5     9
 4.2789900000e-05     1     5     6     1
-6.5737500000e-05     1     5     6     2
 1.0836600000e-05     1     5     6     3
-3.2100000000e-08     1     5     6     4
 1.8579460000e-04     1     5     6     6
-4.2949820000e-04     1     5     6     7
-1.7783484800e-02     1     5     6     8
-1.1540969800e-02     1     5     6     9
 1.1808155000e-03     1     5     7     1
-6.2283540000e-04     1     5     7     2
 1.1201190000e-04     1     5     7     3
-1.6810000000e-07     1     5     7     4
 1.5587890000e-04     1     5     7     6
 1.5207460000e-04     1     5     7     7
-2.1588010000e-04     1     5     7     8
-1.3923150000e-04     1     5     7     9
 5.3867270600e-02     1     5     8     1
-2.7310234600e-02     1     5     8     2
 3.6488726000e-03     1     5     8     3
 3.9695000000e-06     1     5     8     4
 7.6641807000e-03     1     5     8     6
-8.0771810000e-04     1     5     8     7
 1.5804380000e-04     1     5     8     8
 1.4590200000e-05     1     5     8     9
 3.4946548200e-02     1     5     9     1
-1.7716959200e-02     1     5     9     2
 2.3670837000e-03     1     5     9     3
-3.5948800000e-05     1     5     9     4
 4.9696345000e-03     1     5     9     6
-5.2338060000e-04     1     5     9     7
 1.2377000000e-06     1     5     9     8
 1.7186410000e-04     1     5     9     9
 5.4835440300e-02     1     6     2     1
-3.9062895900e-02     1     6     2     2
 4.6523419000e-03     1     6     2     3
-2.9973000000e-06     1     6     2     4
 1.1431500000e-05     1     6     2     5
 9.8592603000e-03     1     6     2     7
-2.2998260000e-04     1     6     2     8
-7.0874700000e-05     1     6     2     9
 2.3407854000e-03     1     6     3     1
 3.4575542000e-03     1     6     3     2
 3.1852284100e-02     1     6     3     3
-1.2817000000e-06     1     6     3     4
 3.3682000000e-06     1     6     3     5
 2.5211249100e-02     1     6     3     7
-4.0724410000e-04     1     6     3     8
-1.4517030000e-04     1     6     3     9
-2.5712800000e-05     1     6     4     1
 3.7172300000e-05     1     6     4     2
-8.1369000000e-06     1     6     4     3
 3.1939823900e-02     1     6     4     4
-3.9900000000e-08     1     6     4     5
 1.5251770000e-04     1     6     4     7
 1.6508586000e-02     1     6     4     8
-2.5456804200e-02     1     6     4     9
 4.2789900000e-05     1     6     5     1
-5.4306000000e-05     1     6     5     2
 1.4204800000e-05     1     6     5     3
-7.2000000000e-08     1     6     5     4
 3.1935930100e-02     1     6     5     5
-5.8537710000e-04     1     6     5     7
-2.5447665500e-02     1     6     5     8
-1.6510604300e-02     1     6     5     9
-2.8841865620e-01     1     6     6     1
 7.1082521100e-02     1     6     6     2
-3.7078469800e-02     1     6     6     3
 8.3979400000e-05     1     6     6     4
-1.8579460000e-04     1     6     6     5
-9.1078678000e-03     1     6     6     7
 3.0825040000e-04     1     6     6     8
 6.9002200000e-05     1     6     6     9
 2.4173677800e-02     1     6     7     1
-1.7746427300e-02     1     6     7     2
 1.0353464900e-02     1     6     7     3
 3.5808200000e-05     1     6     7     4
-1.5587890000e-04     1     6     7     5
 2.2674563300e-02     1     6     7     7
-4.1429100000e-05     1     6     7     8
-1.2004900000e-05     1     6     7     9
-5.5197440000e-04     1     6     8     1
 3.8408880000e-04     1     6     8     2
-1.7889530000e-04     1     6     8     3
 4.9676918000e-03     1     6     8     4
-7.6641807000e-03     1     6     8     5
-2.7942700000e-05     1     6     8     7
 2.0328265700e-02     1     6     8     8
 8.9100000000e-07     1     6     8     9
-1.9119900000e-04     1     6     9     1
 1.3509770000e-04     1     6     9     2
-6.5511800000e-05     1     6     9     3
-7.6589541000e-03     1     6     9     4
-4.9696345000e-03     1     6     9     5
-1.3761300000e-05     1     6     9     7
 1.7210000000e-07     1     6     9     8
 2.0337624200e-02     1     6     9     9
 2.1629989800e-02     1     7     2     1
-7.9930228000e-03     1     7     2     2
 1.6624806600e-02     1     7     2     3
 8.0898000000e-05     1     7     2     4
-3.1816870000e-04     1     7     2     5
-9.8592603000e-03     1     7     2     6
 3.6361000000e-06     1     7     2     8
-4.7570000000e-07     1     7     2     9
-6.1567295600e-02     1     7     3     1
 4.4711318600e-02     1     7     3     2
-2.0268982700e-02     1     7     3     3
 2.9197100000e-05     1     7     3     4
-1.9146100000e-05     1     7     3     5
-2.5211249100e-02     1     7     3     6
 2.1566800000e-05     1     7     3     8
-3.6404000000e-06     1     7     3     9
-2.9252080000e-04     1     7     4     1
 2.4246380000e-04     1     7     4     2
-6.8662000000e-06     1     7     4     3
-9.8582254000e-03     1     7     4     4
-1.2196000000e-06     1     7     4     5
-1.5251770000e-04     1     7     4     6
-3.8517810000e-04     1     7     4     8
 5.9379350000e-04     1     7     4     9
 1.1808155000e-03     1     7     5     1
-9.4100410000e-04     1     7     5     2
 9.2865800000e-05     1     7     5     3
-1.3877000000e-06     1     7     5     4
-9.8559137000e-03     1     7     5     5
 5.8537710000e-04     1     7     5     6
 5.9183800000e-04     1     7     5     8
 3.8414910000e-04     1     7     5     9
 2.4173677800e-02     1     7     6     1
-2.7605687600e-02     1     7     6     2
-1.4857784200e-02     1     7     6     3
-1.1670950000e-04     1     7     6     4
 4.2949820000e-04     1     7     6     5
 9.1078678000e-03     1     7     6     6
-1.3486400000e-05     1     7     6     8
 1.7564000000e-06     1     7     6     9
-3.0644467640e-01     1     7     7     1
 8.5292149900e-02     1     7     7     2
-4.0871474500e-02     1     7     7     3
 6.6812500000e-05     1     7     7     4
-1.5207460000e-04     1     7     7     5
-2.2674563300e-02     1     7     7     6
-1.2629910000e-04     1     7     7     8
-5.1860000000e-05     1     7     7     9
 5.1921000000e-06     1     7     8     1
 3.2430700000e-05     1     7     8     2
 6.4928000000e-06     1     7     8     3
-5.2439590000e-04     1     7     8     4
 8.0771810000e-04     1     7     8     5
 2.7942700000e-05     1     7     8     6
-7.1961811000e-03     1     7     8     8
-4.5660000000e-07     1     7     8     9
 6.1738000000e-06     1     7     9     1
 1.2895000000e-05     1     7     9     2
 3.7247000000e-06     1     7     9     3
 8.0813980000e-04     1     7     9     4
 5.2338060000e-04     1     7     9     5
 1.3761300000e-05     1     7     9     6
-3.2890000000e-07     1     7     9     8
-7.1941203000e-03     1     7     9     9
-4.3239240000e-04     1     8     2     1
 1.7411110000e-04     1     8     2     2
-2.7724830000e-04     1     8     2     3
 9.3042359000e-03     1     8     2     4
-1.4340493000e-02     1     8     2     5
 2.2998260000e-04     1     8     2     6
-3.6361000000e-06     1     8     2     7
-3.4540000000e-07     1     8     2     9
 1.0276241000e-03     1     8     3     1
-7.4295240000e-04     1     8     3     2
 3.3694480000e-04     1     8     3     3
-1.7533297000e-03     1     8     3     4
 2.7060936000e-03     1     8     3     5
 4.0724410000e-04     1     8     3     6
-2.1566800000e-05     1     8     3     7
 5.0290000000e-07     1     8     3     9
-3.4936352700e-02     1     8     4     1
 2.7015629600e-02     1     8     4     2
-4.1191895000e-03     1     8     4     3
 2.1938840000e-04     1     8     4     4
-8.6998000000e-05     1     8     4     5
-1.6508586000e-02     1     8     4     6
 3.8517810000e-04     1     8     4     7
 5.0291000000e-06     1     8     4     9
 5.3867270600e-02     1     8     5     1
-4.1650727600e-02     1     8     5     2
 6.3549662000e-03     1     8     5     3
-8.3028500000e-05     1     8     5     4
 2.9939770000e-04     1     8     5     5
 2.5447665500e-02     1     8     5     6
-5.9183800000e-04     1     8     5     7
 1.3352500000e-05     1     8     5     9
-5.5197440000e-04     1     8     6     1
 6.1407140000e-04     1     8     6     2
 2.2834880000e-04     1     8     6     3
-1.1540894200e-02     1     8     6     4
 1.7783484800e-02     1     8     6     5
-3.0825040000e-04     1     8     6     6
 1.3486400000e-05     1     8     6     7
 7.1890000000e-07     1     8     6     9
 5.1921000000e-06     1     8     7     1
 2.8794600000e-05     1     8     7     2
-1.5074000000e-05     1     8     7     3
-1.3921780000e-04     1     8     7     4
 2.1588010000e-04     1     8     7     5
 4.1429100000e-05     1     8     7     6
 1.2629910000e-04     1     8     7     7
-1.2770000000e-07     1     8     7     9
-3.0475687820e-01     1     8     8     1
 8.5835097800e-02     1     8     8     2
-4.0538175900e-02     1     8     8     3
 6.2143500000e-05     1     8     8     4
-1.5804380000e-04     1     8     8     5
-2.0328265700e-02     1     8     8     6
 7.1961811000e-03     1     8     8     7
-5.1909900000e-05     1     8     8     9
 7.4678000000e-06     1     8     9     1
-4.2287000000e-06     1     8     9     2
 1.2151000000e-06     1     8     9     3
 6.6459000000e-06     1     8     9     4
-1.2377000000e-06     1     8     9     5
-1.7210000000e-07     1     8     9     6
 3.2890000000e-07     1     8     9     7
 1.2835270000e-04     1     8     9     9
-1.4944990000e-04     1     9     2     1
 5.4335200000e-05     1     9     2     2
-1.0008770000e-04     1     9     2     3
-1.4344480500e-02     1     9     2     4
-9.3037654000e-03     1     9     2     5
 7.0874700000e-05     1     9     2     6
 4.7570000000e-07     1     9     2     7
 3.4540000000e-07     1     9     2     8
 3.6340790000e-04     1     9     3     1
-2.6318260000e-04     1     9     3     2
 1.3072410000e-04     1     9     3     3
 2.7040502000e-03     1     9     3     4
 1.7573384000e-03     1     9     3     5
 1.4517030000e-04     1     9     3     6
 3.6404000000e-06     1     9     3     7
-5.0290000000e-07     1     9     3     8
 5.3866882700e-02     1     9     4     1
-4.1655428400e-02     1     9     4     2
 6.3518402000e-03     1     9     4     3
 8.4920000000e-06     1     9     4     4
 6.1608100000e-05     1     9     4     5
 2.5456804200e-02     1     9     4     6
-5.9379350000e-04     1     9     4     7
-5.0291000000e-06     1     9     4     8
 3.4946548200e-02     1     9     5     1
-2.7020724600e-02     1     9     5     2
 4.1244221000e-03     1     9     5     3
 2.5659300000e-05     1     9     5     4
 1.4872020000e-04     1     9     5     5
 1.6510604300e-02     1     9     5     6
-3.8414910000e-04     1     9     5     7
-1.3352500000e-05     1     9     5     8
-1.9119900000e-04     1     9     6     1
 2.0597240000e-04     1     9     6     2
 7.9658500000e-05     1     9     6     3
 1.7797850100e-02     1     9     6     4
 1.1540969800e-02     1     9     6     5
-6.9002200000e-05     1     9     6     6
-1.7564000000e-06     1     9     6     7
-7.1890000000e-07     1     9     6     8
 6.1738000000e-06     1     9     7     1
 1.3370700000e-05     1     9     7     2
 7.3651000000e-06     1     9     7     3
 2.1434630000e-04     1     9     7     4
 1.3923150000e-04     1     9     7     5
 1.2004900000e-05     1     9     7     6
 5.1860000000e-05     1     9     7     7
 1.2770000000e-07     1     9     7     8
 7.4678000000e-06     1     9     8     1
-3.8833000000e-06     1     9     8     2
 7.1220000000e-07     1     9     8     3
 1.6168000000e-06     1     9     8     4
-1.4590200000e-05     1     9     8     5
-8.9100000000e-07     1     9     8     6
 4.5660000000e-07     1     9     8     7
 5.1909900000e-05     1     9     8     8
-3.0480467000e-01     1     9     9     1
 8.5867077200e-02     1     9     9     2
-4.0544417100e-02     1     9     9     3
 6.0159800000e-05     1     9     9     4
-1.7186410000e-04     1     9     9     5
-2.0337624200e-02     1     9     9     6
 7.1941203000e-03     1     9     9     7
-1.2835270000e-04     1     9     9     8
-1.7485825240e-01     2     1     1     2
 9.9826105000e-03     2     1     1     3
-9.7563700000e-05     2     1     1     4
 1.7106170000e-04     2     1     1     5
 5.4835440300e-02     2     1     1     6
 2.1629989800e-02     2     1     1     7
-4.3239240000e-04     2     1     1     8
-1.4944990000e-04     2     1     1     9
-1.8775666300e-02     2     1     3     2
-8.8302824500e-02     2     1     3     3
 9.8440000000e-07     2     1     3     4
-4.9564000000e-06     2     1     3     5
 1.1947877000e-03     2     1     3     6
-2.8086512000e-02     2     1     3     7
 4.6570410000e-04     2     1     3     8
 1.6309490000e-04     2     1     3     9
-4.4347100000e-05     2     1     4     2
 9.2444000000e-06     2     1     4     3
-8.7807229600e-02     2     1     4     4
 1.9000000000e-08     2     1     4     5
-4.0169600000e-05     2     1     4     6
-1.6156580000e-04     2     1     4     7
-1.7711393700e-02     2     1     4     8
 2.7310947900e-02     2     1     4     9
 4.5890400000e-05     2     1     5     2
-1.8126600000e-05     2     1     5     3
-2.6400000000e-08     2     1     5     4
-8.7799351100e-02     2     1     5     5
 6.5737500000e-05     2     1     5     6
 6.2283540000e-04     2     1     5     7
 2.7310234600e-02     2     1     5     8
 1.7716959200e-02     2     1     5     9
 3.9062895900e-02     2     1     6     2
-3.4575542000e-03     2     1     6     3
-3.7172300000e-05     2     1     6     4
 5.4306000000e-05     2     1     6     5
-7.1082521100e-02     2     1     6     6
 1.7746427300e-02     2     1     6     7
-3.8408880000e-04     2     1     6     8
-1.3509770000e-04     2     1     6     9
 7.9930228000e-03     2     1     7     2
-4.4711318600e-02     2     1     7     3
-2.4246380000e-04     2     1     7     4
 9.4100410000e-04     2     1     7     5
 2.7605687600e-02     2     1     7     6
-8.5292149900e-02     2     1     7     7
-3.2430700000e-05     2     1     7     8
-1.2895000000e-05     2     1     7     9
-1.7411110000e-04     2     1     8     2
 7.4295240000e-04     2     1     8     3
-2.7015629600e-02     2     1     8     4
 4.1650727600e-02     2     1     8     5
-6.1407140000e-04     2     1     8     6
-2.8794600000e-05     2     1     8     7
-8.5835097800e-02     2     1     8     8
 4.2287000000e-06     2     1     8     9
-5.4335200000e-05     2     1     9     2
 2.6318260000e-04     2     1     9     3
 4.1655428400e-02     2     1     9     4
 2.7020724600e-02     2     1     9     5
-2.0597240000e-04     2     1     9     6
-1.3370700000e-05     2     1     9     7
 3.8833000000e-06     2     1     9     8
-8.5867077200e-02     2     1     9     9
 1.7485825240e-01     2     2     1     1
 1.8775666300e-02     2     2     1     3
 4.4347100000e-05     2     2     1     4
-4.5890400000e-05     2     2     1     5
-3.9062895900e-02     2     2     1     6
-7.9930228000e-03     2     2     1     7
 1.7411110000e-04     2     2     1     8
 5.4335200000e-05     2     2     1     9
 1.8775666300e-02     2     2     3     1
 2.2809231020e-01     2     2     3     3
 3.5099200000e-05     2     2     3     4
-6.5662700000e-05     2     2     3     5
-1.8662939000e-02     2     2     3     6
 3.0239558100e-02     2     2     3     7
-4.9875180000e-04     2     2     3     8
-1.7714610000e-04     2     2     3     9
 4.4347100000e-05     2     2     4     1
 3.5099200000e-05     2     2     4     3
 2.3583351900e-01     2     2     4     4
 2.7030000000e-07     2     2     4     5
 7.8800500000e-05     2     2     4     6
 1.3359430000e-04     2     2     4     7
 1.6572682200e-02     2     2     4     8
-2.5553799900e-02     2     2     4     9
-4.5890400000e-05     2     2     5     1
-6.5662700000e-05     2     2     5     3
 2.7030000000e-07     2     2     5     4
 2.3582652990e-01     2     2     5     5
-1.5121880000e-04     2     2     5     6
-5.5305170000e-04     2     2     5     7
-2.5556498800e-02     2     2     5     8
-1.6580588200e-02     2     2     5     9
-3.9062895900e-02     2     2     6     1
-1.8662939000e-02     2     2     6     3
 7.8800500000e-05     2     2     6     4
-1.5121880000e-04     2     2     6     5
 2.0272944490e-01     2     2     6     6
-7.2399579000e-03     2     2     6     7
 1.7815270000e-04     2     2     6     8
 6.2597000000e-05     2     2     6     9
-7.9930228000e-03     2     2     7     1
 3.0239558100e-02     2     2     7     3
 1.3359430000e-04     2     2     7     4
-5.5305170000e-04     2     2     7     5
-7.2399579000e-03     2     2     7     6
 2.3317603780e-01     2     2     7     7
-3.6848200000e-05     2     2     7     8
-1.9177700000e-05     2     2     7     9
 1.7411110000e-04     2     2     8     1
-4.9875180000e-04     2     2     8     3
 1.6572682200e-02     2     2     8     4
-2.5556498800e-02     2     2     8     5
 1.7815270000e-04     2     2     8     6
-3.6848200000e-05     2     2     8     7
 2.3075073810e-01     2     2     8     8
-4.1983000000e-06     2     2     8     9
 5.4335200000e-05     2     2     9     1
-1.7714610000e-04     2     2     9     3
-2.5553799900e-02     2     2     9     4
-1.6580588200e-02     2     2     9     5
 6.2597000000e-05     2     2     9     6
-1.9177700000e-05     2     2     9     7
-4.1983000000e-06     2     2     9     8
 2.3077429650e-01     2     2     9     9
-9.9826105000e-03     2     3     1     1
-1.8775666300e-02     2     3     1     2
-8.2600000000e-06     2     3     1     4
 1.3170200000e-05     2     3     1     5
 4.6523419000e-03     2     3     1     6
 1.6624806600e-02     2     3     1     7
-2.7724830000e-04     2     3     1     8
-1.0008770000e-04     2     3     1     9