&FCI NORB=  9,NELEC=  2,MS2=0,
 ORBSYM=1,1,1,1,1,1,1,1,1
 ISYM=1,
&END
 3.1518777330e-01     1     1     2     2
-8.2746600000e-05     1     1     2     3
 2.3903350000e-04     1     1     2     4
-1.2224791300e-02     1     1     2     5
 9.3436145500e-02     1     1     2     6
 3.5511500000e-05     1     1     2     7
-6.5193000000e-06     1     1     2     8
-1.0274626800e-02     1     1     2     9
-8.2746600000e-05     1     1     3     2
 3.4363894800e-01     1     1     3     3
-1.3482000000e-06     1     1     3     4
 6.6803200000e-05     1     1     3     5
-1.9384600000e-05     1     1     3     6
 2.3813845000e-03     1     1     3     7
 6.8579496700e-02     1     1     3     8
-5.0416390000e-04     1     1     3     9
 2.3903350000e-04     1     1     4     2
-1.3482000000e-06     1     1     4     3
 3.4363941330e-01     1     1     4     4
-1.8799090000e-04     1     1     4     5
 2.1328000000e-06     1     1     4     6
 6.8612240300e-02     1     1     4     7
-2.3752319000e-03     1     1     4     8
 1.3265357000e-03     1     1     4     9
-1.2224791300e-02     1     1     5     2
 6.6803200000e-05     1     1     5     3
-1.8799090000e-04     1     1     5     4
 3.5549361150e-01     1     1     5     5
-1.9712112000e-03     1     1     5     6
 1.2276397000e-03     1     1     5     7
-5.6298390000e-04     1     1     5     8
-7.0490738100e-02     1     1     5     9
 9.3436145500e-02     1     1     6     2
-1.9384600000e-05     1     1     6     3
 2.1328000000e-06     1     1     6     4
-1.9712112000e-03     1     1     6     5
 4.0196167850e-01     1     1     6     6
 5.3025000000e-06     1     1     6     7
-8.1360000000e-07     1     1     6     8
-1.1478645000e-03     1     1     6     9
 3.5511500000e-05     1     1     7     2
 2.3813845000e-03     1     1     7     3
 6.8612240300e-02     1     1     7     4
 1.2276397000e-03     1     1     7     5
 5.3025000000e-06     1     1     7     6
 4.0527170360e-01     1     1     7     7
-2.1550000000e-07     1     1     7     8
 4.7602400000e-05     1     1     7     9
-6.5193000000e-06     1     1     8     2
 6.8579496700e-02     1     1     8     3
-2.3752319000e-03     1     1     8     4
-5.6298390000e-04     1     1     8     5
-8.1360000000e-07     1     1     8     6
-2.1550000000e-07     1     1     8     7
 4.0524510970e-01     1     1     8     8
-1.5697500000e-05     1     1     8     9
-1.0274626800e-02     1     1     9     2
-5.0416390000e-04     1     1     9     3
 1.3265357000e-03     1     1     9     4
-7.0490738100e-02     1     1     9     5
-1.1478645000e-03     1     1     9     6
 4.7602400000e-05     1     1     9     7
-1.5697500000e-05     1     1     9     8
 4.3545661060e-01     1     1     9     9
-3.1518777330e-01     1     2     2     1
-2.3726390000e-04     1     2     2     3
 6.8287960000e-04     1     2     2     4
-3.4517731900e-02     1     2     2     5
 5.8064962000e-02     1     2     2     6
 5.2115300000e-05     1     2     2     7
-2.2750000000e-07     1     2     2     8
 1.0053155800e-02     1     2     2     9
 8.2746600000e-05     1     2     3     1
 8.9654009900e-02     1     2     3     3
-4.1070000000e-07     1     2     3     4
 1.7703600000e-05     1     2     3     5
 7.0855100000e-05     1     2     3     6
 1.8757996000e-03     1     2     3     7
 5.4012716700e-02     1     2     3     8
-3.9174030000e-04     1     2     3     9
-2.3903350000e-04     1     2     4     1
-4.1440000000e-07     1     2     4     3
 8.9653453400e-02     1     2     4     4
-4.8274800000e-05     1     2     4     5
-2.4743090000e-04     1     2     4     6
 5.4019630100e-02     1     2     4     7
-1.8691625000e-03     1     2     4     8
 1.0056663000e-03     1     2     4     9
 1.2224791300e-02     1     2     5     1
 1.9331300000e-05     1     2     5     3
-5.4687200000e-05     1     2     5     4
 9.3227645800e-02     1     2     5     5
 1.0725212500e-02     1     2     5     6
 9.9134950000e-04     1     2     5     7
-4.3276930000e-04     1     2     5     8
-5.3858714100e-02     1     2     5     9
-9.3436145500e-02     1     2     6     1
 1.4452000000e-05     1     2     6     3
-5.4993500000e-05     1     2     6     4
 2.2815031000e-03     1     2     6     5
 1.0024797220e-01     1     2     6     6
 1.2946000000e-05     1     2     6     7
-1.0090000000e-07     1     2     6     8
 6.4817124000e-03     1     2     6     9
-3.5511500000e-05     1     2     7     1
 5.5817060000e-04     1     2     7     3
 1.6083463400e-02     1     2     7     4
 2.9022590000e-04     1     2     7     5
-3.4701000000e-06     1     2     7     6
 9.9847168500e-02     1     2     7     7
-5.1200000000e-07     1     2     7     8
 3.5217400000e-05     1     2     7     9
 6.5193000000e-06     1     2     8     1
 1.6081000900e-02     1     2     8     3
-5.5621240000e-04     1     2     8     4
-1.2766620000e-04     1     2     8     5
-1.0879000000e-06     1     2     8     6
-4.4200000000e-07     1     2     8     7
 9.9826627700e-02     1     2     8     8
-5.9252000000e-06     1     2     8     9
 1.0274626800e-02     1     2     9     1
-1.1304750000e-04     1     2     9     3
 2.9090710000e-04     1     2     9     4
-1.5735812500e-02     1     2     9     5
-1.6247225000e-03     1     2     9     6
 2.2165400000e-05     1     2     9     7
-3.2673000000e-06     1     2     9     8
 1.2022077900e-01     1     2     9     9
 8.2746600000e-05     1     3     2     1
 2.3726390000e-04     1     3     2     2
 3.7000000000e-09     1     3     2     4
-1.6277000000e-06     1     3     2     5
 5.6403100000e-05     1     3     2     6
 1.3176290000e-03     1     3     2     7
 3.7931715800e-02     1     3     2     8
-2.7869280000e-04     1     3     2     9
-3.4363894800e-01     1     3     3     1
-8.9654009900e-02     1     3     3     2
 6.6467680000e-04     1     3     3     4
-3.3770448500e-02     1     3     3     5
-1.5382696200e-02     1     3     3     6
 2.5555800000e-05     1     3     3     7
-1.2988240000e-04     1     3     3     8
-4.9638540000e-03     1     3     3     9
 1.3482000000e-06     1     3     4     1
 4.1440000000e-07     1     3     4     2
 2.3116940000e-04     1     3     4     4
-7.1000000000e-08     1     3     4     5
 2.2894000000e-06     1     3     4     6
-5.6728600000e-05     1     3     4     7
 1.8470060000e-04     1     3     4     8
 2.2375000000e-06     1     3     4     9
-6.6803200000e-05     1     3     5     1
-1.9331300000e-05     1     3     5     2
-6.5000000000e-09     1     3     5     4
 2.3721580000e-04     1     3     5     5
-1.0844650000e-04     1     3     5     6
-3.1289380000e-04     1     3     5     7
-8.9533619000e-03     1     3     5     8
 5.9601400000e-05     1     3     5     9
 1.9384600000e-05     1     3     6     1
-1.4452000000e-05     1     3     6     2
-5.8000000000e-09     1     3     6     4
 1.4948000000e-06     1     3     6     5
 2.2930770000e-04     1     3     6     6
 1.7097280000e-04     1     3     6     7
 4.9183694000e-03     1     3     6     8
-1.4432600000e-04     1     3     6     9
-2.3813845000e-03     1     3     7     1
-5.5817060000e-04     1     3     7     2
 2.1960000000e-07     1     3     7     4
 6.1946000000e-06     1     3     7     5
-6.3178740000e-04     1     3     7     6
 2.5795130000e-04     1     3     7     7
-6.1664000000e-06     1     3     7     8
-2.9055150000e-04     1     3     7     9
-6.8579496700e-02     1     3     8     1
-1.6081000900e-02     1     3     8     2
 5.1700000000e-07     1     3     8     4
 1.8058500000e-04     1     3     8     5
-1.8195500900e-02     1     3     8     6
-1.8737400000e-05     1     3     8     7
 2.4768360000e-04     1     3     8     8
-8.3789649000e-03     1     3     8     9
 5.0416390000e-04     1     3     9     1
 1.1304750000e-04     1     3     9     2
-9.7000000000e-09     1     3     9     4
 1.7504000000e-06     1     3     9     5
 4.9897100000e-05     1     3     9     6
-1.7542010000e-04     1     3     9     7
-5.0410152000e-03     1     3     9     8
 2.6113610000e-04     1     3     9     9
-2.3903350000e-04     1     4     2     1
-6.8287960000e-04     1     4     2     2
-3.7000000000e-09     1     4     2     3
 6.4124000000e-06     1     4     2     5
-1.9243740000e-04     1     4     2     6
 3.7936166700e-02     1     4     2     7
-1.3129501000e-03     1     4     2     8
 7.1475920000e-04     1     4     2     9
 1.3482000000e-06     1     4     3     1
 4.1070000000e-07     1     4     3     2
-6.6467680000e-04     1     4     3     3
-6.4500000000e-08     1     4     3     5
 2.2952000000e-06     1     4     3     6
-5.6948200000e-05     1     4     3     7
 1.8418360000e-04     1     4     3     8
 2.2472000000e-06     1     4     3     9
-3.4363941330e-01     1     4     4     1
-8.9653453400e-02     1     4     4     2
-2.3116940000e-04     1     4     4     3
-3.3771337300e-02     1     4     4     5
-1.5387310600e-02     1     4     4     6
 3.5990410000e-04     1     4     4     7
-1.2447200000e-05     1     4     4     8
-4.9645171000e-03     1     4     4     9
 1.8799090000e-04     1     4     5     1
 5.4687200000e-05     1     4     5     2
 6.5000000000e-09     1     4     5     3
-6.8193000000e-04     1     4     5     5
 3.2061170000e-04     1     4     5     6
-8.9143422000e-03     1     4     5     7
 3.0580580000e-04     1     4     5     8
-1.1365220000e-04     1     4     5     9
-2.1328000000e-06     1     4     6     1
 5.4993500000e-05     1     4     6     2
 5.8000000000e-09     1     4     6     3
-5.6781000000e-06     1     4     6     5
-6.4544300000e-04     1     4     6     6
 4.9231690000e-03     1     4     6     7
-1.7041150000e-04     1     4     6     8
 3.9651250000e-04     1     4     6     9
-6.8612240300e-02     1     4     7     1
-1.6083463400e-02     1     4     7     2
-2.1960000000e-07     1     4     7     3
 1.8034770000e-04     1     4     7     5
-1.8194585500e-02     1     4     7     6
-7.4221290000e-04     1     4     7     7
-2.6163000000e-06     1     4     7     8
-8.3672001000e-03     1     4     7     9
 2.3752319000e-03     1     4     8     1
 5.5621240000e-04     1     4     8     2
-5.1700000000e-07     1     4     8     3
-6.1123000000e-06     1     4     8     5
 6.2960860000e-04     1     4     8     6
-3.3052000000e-06     1     4     8     7
-7.4420520000e-04     1     4     8     8
 2.8962590000e-04     1     4     8     9
-1.3265357000e-03     1     4     9     1
-2.9090710000e-04     1     4     9     2
 9.7000000000e-09     1     4     9     3
-5.1071000000e-06     1     4     9     5
-1.0960040000e-04     1     4     9     6
-5.0382164000e-03     1     4     9     7
 1.7376930000e-04     1     4     9     8
-7.2478100000e-04     1     4     9     9
 1.2224791300e-02     1     5     2     1
 3.4517731900e-02     1     5     2     2
 1.6277000000e-06     1     5     2     3
-6.4124000000e-06     1     5     2     4
 8.4437094000e-03     1     5     2     6
 7.0112360000e-04     1     5     2     7
-3.0510310000e-04     1     5     2     8
-3.8122901600e-02     1     5     2     9
-6.6803200000e-05     1     5     3     1
-1.7703600000e-05     1     5     3     2
 3.3770448500e-02     1     5     3     3
 6.4500000000e-08     1     5     3     4
-1.0994130000e-04     1     5     3     6
-3.1908840000e-04     1     5     3     7
-9.1339469000e-03     1     5     3     8
 5.7851000000e-05     1     5     3     9
 1.8799090000e-04     1     5     4     1
 4.8274800000e-05     1     5     4     2
 7.1000000000e-08     1     5     4     3
 3.3771337300e-02     1     5     4     4
 3.2628980000e-04     1     5     4     6
-9.0946899000e-03     1     5     4     7
 3.1191810000e-04     1     5     4     8
-1.0854510000e-04     1     5     4     9
-3.5549361150e-01     1     5     5     1
-9.3227645800e-02     1     5     5     2
-2.3721580000e-04     1     5     5     3
 6.8193000000e-04     1     5     5     4
-3.1552385700e-02     1     5     5     6
-4.0963850000e-04     1     5     5     7
 1.2573420000e-04     1     5     5     8
 1.9254702000e-03     1     5     5     9
 1.9712112000e-03     1     5     6     1
-2.2815031000e-03     1     5     6     2
-1.4948000000e-06     1     5     6     3
 5.6781000000e-06     1     5     6     4
 3.2978195100e-02     1     5     6     6
 6.3471100000e-05     1     5     6     7
-3.9741300000e-05     1     5     6     8
-1.9887386000e-02     1     5     6     9
-1.2276397000e-03     1     5     7     1
-2.9022590000e-04     1     5     7     2
-6.1946000000e-06     1     5     7     3
-1.8034770000e-04     1     5     7     4
-3.3879290000e-04     1     5     7     6
 3.7415328600e-02     1     5     7     7
-1.0470000000e-07     1     5     7     8
-1.6923920000e-04     1     5     7     9
 5.6298390000e-04     1     5     8     1
 1.2766620000e-04     1     5     8     2
-1.8058500000e-04     1     5     8     3
 6.1123000000e-06     1     5     8     4
 1.4231430000e-04     1     5     8     6
 5.3540000000e-07     1     5     8     7
 3.7416504700e-02     1     5     8     8
 5.7089300000e-05     1     5     8     9
 7.0490738100e-02     1     5     9     1
 1.5735812500e-02     1     5     9     2
-1.7504000000e-06     1     5     9     3
 5.1071000000e-06     1     5     9     4
 6.6264938000e-03     1     5     9     6
-8.2889800000e-05     1     5     9     7
 3.1999800000e-05     1     5     9     8
 3.6289967500e-02     1     5     9     9
-9.3436145500e-02     1     6     2     1
-5.8064962000e-02     1     6     2     2
-5.6403100000e-05     1     6     2     3
 1.9243740000e-04     1     6     2     4
-8.4437094000e-03     1     6     2     5
 1.6416100000e-05     1     6     2     7
 9.8700000000e-07     1     6     2     8
 8.1064349000e-03     1     6     2     9
 1.9384600000e-05     1     6     3     1
-7.0855100000e-05     1     6     3     2
 1.5382696200e-02     1     6     3     3
-2.2952000000e-06     1     6     3     4
 1.0994130000e-04     1     6     3     5
 8.0276020000e-04     1     6     3     7
 2.3113870300e-02     1     6     3     8
-1.9422310000e-04     1     6     3     9
-2.1328000000e-06     1     6     4     1
 2.4743090000e-04     1     6     4     2
-2.2894000000e-06     1     6     4     3
 1.5387310600e-02     1     6     4     4
-3.2628980000e-04     1     6     4     5
 2.3117754500e-02     1     6     4     7
-8.0002010000e-04     1     6     4     8
 5.0611290000e-04     1     6     4     9
 1.9712112000e-03     1     6     5     1
-1.0725212500e-02     1     6     5     2
 1.0844650000e-04     1     6     5     3
-3.2061170000e-04     1     6     5     4
 3.1552385700e-02     1     6     5     5
 4.0226400000e-04     1     6     5     7
-1.8205560000e-04     1     6     5     8
-2.6513879800e-02     1     6     5     9
-4.0196167850e-01     1     6     6     1
-1.0024797220e-01     1     6     6     2
-2.2930770000e-04     1     6     6     3
 6.4544300000e-04     1     6     6     4
-3.2978195100e-02     1     6     6     5
 1.6259000000e-06     1     6     6     7
-6.2264000000e-06     1     6     6     8
-4.8651400000e-04     1     6     6     9
-5.3025000000e-06     1     6     7     1
 3.4701000000e-06     1     6     7     2
 6.3178740000e-04     1     6     7     3
 1.8194585500e-02     1     6     7     4
 3.3879290000e-04     1     6     7     5
 9.3504079000e-03     1     6     7     7
-3.6220000000e-07     1     6     7     8
 1.2750700000e-05     1     6     7     9
 8.1360000000e-07     1     6     8     1
 1.0879000000e-06     1     6     8     2
 1.8195500900e-02     1     6     8     3
-6.2960860000e-04     1     6     8     4
-1.4231430000e-04     1     6     8     5
-1.5820000000e-07     1     6     8     7
 9.3419891000e-03     1     6     8     8
-3.1542000000e-06     1     6     8     9
 1.1478645000e-03     1     6     9     1
 1.6247225000e-03     1     6     9     2
-4.9897100000e-05     1     6     9     3
 1.0960040000e-04     1     6     9     4
-6.6264938000e-03     1     6     9     5
 3.1132000000e-06     1     6     9     7
-1.6399000000e-06     1     6     9     8
 1.2765278700e-02     1     6     9     9
-3.5511500000e-05     1     7     2     1
-5.2115300000e-05     1     7     2     2
-1.3176290000e-03     1     7     2     3
-3.7936166700e-02     1     7     2     4
-7.0112360000e-04     1     7     2     5
-1.6416100000e-05     1     7     2     6
-7.0000000000e-08     1     7     2     8
 1.3052000000e-05     1     7     2     9
-2.3813845000e-03     1     7     3     1
-1.8757996000e-03     1     7     3     2
-2.5555800000e-05     1     7     3     3
 5.6948200000e-05     1     7     3     4
 3.1908840000e-04     1     7     3     5
-8.0276020000e-04     1     7     3     6
 1.2571000000e-05     1     7     3     8
-1.1513140000e-04     1     7     3     9
-6.8612240300e-02     1     7     4     1
-5.4019630100e-02     1     7     4     2
 5.6728600000e-05     1     7     4     3
-3.5990410000e-04     1     7     4     4
 9.0946899000e-03     1     7     4     5
-2.3117754500e-02     1     7     4     6
 6.8890000000e-07     1     7     4     8
-3.3289837000e-03     1     7     4     9
-1.2276397000e-03     1     7     5     1
-9.9134950000e-04     1     7     5     2
 3.1289380000e-04     1     7     5     3
 8.9143422000e-03     1     7     5     4
 4.0963850000e-04     1     7     5     5
-4.0226400000e-04     1     7     5     6
-6.4010000000e-07     1     7     5     8
-8.6349400000e-05     1     7     5     9
-5.3025000000e-06     1     7     6     1
-1.2946000000e-05     1     7     6     2
-1.7097280000e-04     1     7     6     3
-4.9231690000e-03     1     7     6     4
-6.3471100000e-05     1     7     6     5
-1.6259000000e-06     1     7     6     6
-2.0400000000e-07     1     7     6     8
 9.6375000000e-06     1     7     6     9
-4.0527170360e-01     1     7     7     1
-9.9847168500e-02     1     7     7     2
-2.5795130000e-04     1     7     7     3
 7.4221290000e-04     1     7     7     4
-3.7415328600e-02     1     7     7     5
-9.3504079000e-03     1     7     7     6
-4.8952000000e-06     1     7     7     8
-1.5518094000e-03     1     7     7     9
 2.1550000000e-07     1     7     8     1
 4.4200000000e-07     1     7     8     2
 1.8737400000e-05     1     7     8     3
 3.3052000000e-06     1     7     8     4
-5.3540000000e-07     1     7     8     5
 1.5820000000e-07     1     7     8     6
-6.1534000000e-06     1     7     8     8
 5.7900000000e-08     1     7     8     9
-4.7602400000e-05     1     7     9     1
-2.2165400000e-05     1     7     9     2
 1.7542010000e-04     1     7     9     3
 5.0382164000e-03     1     7     9     4
 8.2889800000e-05     1     7     9     5
-3.1132000000e-06     1     7     9     6
-1.1620000000e-07     1     7     9     8
-1.3220000000e-06     1     7     9     9
 6.5193000000e-06     1     8     2     1
 2.2750000000e-07     1     8     2     2
-3.7931715800e-02     1     8     2     3
 1.3129501000e-03     1     8     2     4
 3.0510310000e-04     1     8     2     5
-9.8700000000e-07     1     8     2     6
 7.0000000000e-08     1     8     2     7
-2.6579000000e-06     1     8     2     9
-6.8579496700e-02     1     8     3     1
-5.4012716700e-02     1     8     3     2
 1.2988240000e-04     1     8     3     3
-1.8418360000e-04     1     8     3     4
 9.1339469000e-03     1     8     3     5
-2.3113870300e-02     1     8     3     6
-1.2571000000e-05     1     8     3     7
-3.3379497000e-03     1     8     3     9
 2.3752319000e-03     1     8     4     1
 1.8691625000e-03     1     8     4     2
-1.8470060000e-04     1     8     4     3
 1.2447200000e-05     1     8     4     4
-3.1191810000e-04     1     8     4     5
 8.0002010000e-04     1     8     4     6
-6.8890000000e-07     1     8     4     7
 1.1585660000e-04     1     8     4     9
 5.6298390000e-04     1     8     5     1
 4.3276930000e-04     1     8     5     2
 8.9533619000e-03     1     8     5     3
-3.0580580000e-04     1     8     5     4
-1.2573420000e-04     1     8     5     5
 1.8205560000e-04     1     8     5     6
 6.4010000000e-07     1     8     5     7
 2.5089500000e-05     1     8     5     9
 8.1360000000e-07     1     8     6     1
 1.0090000000e-07     1     8     6     2
-4.9183694000e-03     1     8     6     3
 1.7041150000e-04     1     8     6     4
 3.9741300000e-05     1     8     6     5
 6.2264000000e-06     1     8     6     6
 2.0400000000e-07     1     8     6     7
-1.5143000000e-06     1     8     6     9
 2.1550000000e-07     1     8     7     1
 5.1200000000e-07     1     8     7     2
 6.1664000000e-06     1     8     7     3
 2.6163000000e-06     1     8     7     4
 1.0470000000e-07     1     8     7     5
 3.6220000000e-07     1     8     7     6
 4.8952000000e-06     1     8     7     7
 1.7410000000e-07     1     8     7     9
-4.0524510970e-01     1     8     8     1
-9.9826627700e-02     1     8     8     2
-2.4768360000e-04     1     8     8     3
 7.4420520000e-04     1     8     8     4
-3.7416504700e-02     1     8     8     5
-9.3419891000e-03     1     8     8     6
 6.1534000000e-06     1     8     8     7
-1.5533198000e-03     1     8     8     9
 1.5697500000e-05     1     8     9     1
 3.2673000000e-06     1     8     9     2
 5.0410152000e-03     1     8     9     3
-1.7376930000e-04     1     8     9     4
-3.1999800000e-05     1     8     9     5
 1.6399000000e-06     1     8     9     6
 1.1620000000e-07     1     8     9     7
 4.8819000000e-06     1     8     9     9
 1.0274626800e-02     1     9     2     1
-1.0053155800e-02     1     9     2     2
 2.7869280000e-04     1     9     2     3
-7.1475920000e-04     1     9     2     4
 3.8122901600e-02     1     9     2     5
-8.1064349000e-03     1     9     2     6
-1.3052000000e-05     1     9     2     7
 2.6579000000e-06     1     9     2     8
 5.0416390000e-04     1     9     3     1
 3.9174030000e-04     1     9     3     2
 4.9638540000e-03     1     9     3     3
-2.2472000000e-06     1     9     3     4
-5.7851000000e-05     1     9     3     5
 1.9422310000e-04     1     9     3     6
 1.1513140000e-04     1     9     3     7
 3.3379497000e-03     1     9     3     8
-1.3265357000e-03     1     9     4     1
-1.0056663000e-03     1     9     4     2
-2.2375000000e-06     1     9     4     3
 4.9645171000e-03     1     9     4     4
 1.0854510000e-04     1     9     4     5
-5.0611290000e-04     1     9     4     6
 3.3289837000e-03     1     9     4     7
-1.1585660000e-04     1     9     4     8
 7.0490738100e-02     1     9     5     1
 5.3858714100e-02     1     9     5     2
-5.9601400000e-05     1     9     5     3
 1.1365220000e-04     1     9     5     4
-1.9254702000e-03     1     9     5     5
 2.6513879800e-02     1     9     5     6
 8.6349400000e-05     1     9     5     7
-2.5089500000e-05     1     9     5     8
 1.1478645000e-03     1     9     6     1
-6.4817124000e-03     1     9     6     2
 1.4432600000e-04     1     9     6     3
-3.9651250000e-04     1     9     6     4
 1.9887386000e-02     1     9     6     5
 4.8651400000e-04     1     9     6     6
-9.6375000000e-06     1     9     6     7
 1.5143000000e-06     1     9     6     8
-4.7602400000e-05     1     9     7     1
-3.5217400000e-05     1     9     7     2
 2.9055150000e-04     1     9     7     3
 8.3672001000e-03     1     9     7     4
 1.6923920000e-04     1     9     7     5
-1.2750700000e-05     1     9     7     6
 1.5518094000e-03     1     9     7     7
-1.7410000000e-07     1     9     7     8
 1.5697500000e-05     1     9     8     1
 5.9252000000e-06     1     9     8     2
 8.3789649000e-03     1     9     8     3
-2.8962590000e-04     1     9     8     4
-5.7089300000e-05     1     9     8     5
 3.1542000000e-06     1     9     8     6
-5.7900000000e-08     1     9     8     7
 1.5533198000e-03     1     9     8     8
-4.3545661060e-01     1     9     9     1
-1.2022077900e-01     1     9     9     2
-2.6113610000e-04     1     9     9     3
 7.2478100000e-04     1     9     9     4
-3.6289967500e-02     1     9     9     5
-1.2765278700e-02     1     9     9     6
 1.3220000000e-06     1     9     9     7
-4.8819000000e-06     1     9     9     8
-3.1518777330e-01     2     1     1     2
 8.2746600000e-05     2     1     1     3
-2.3903350000e-04     2     1     1     4
 1.2224791300e-02     2     1     1     5
-9.3436145500e-02     2     1     1     6
-3.5511500000e-05     2     1     1     7
 6.5193000000e-06     2     1     1     8
 1.0274626800e-02     2     1     1     9
-2.3726390000e-04     2     1     3     2
 8.9654009900e-02     2     1     3     3
-4.1440000000e-07     2     1     3     4
 1.9331300000e-05     2     1     3     5
 1.4452000000e-05     2     1     3     6
 5.5817060000e-04     2     1     3     7
 1.6081000900e-02     2     1     3     8
-1.1304750000e-04     2     1     3     9
 6.8287960000e-04     2     1     4     2
-4.1070000000e-07     2     1     4     3
 8.9653453400e-02     2     1     4     4
-5.4687200000e-05     2     1     4     5
-5.4993500000e-05     2     1     4     6
 1.6083463400e-02     2     1     4     7
-5.5621240000e-04     2     1     4     8
 2.9090710000e-04     2     1     4     9
-3.4517731900e-02     2     1     5     2
 1.7703600000e-05     2     1     5     3
-4.8274800000e-05     2     1     5     4
 9.3227645800e-02     2     1     5     5
 2.2815031000e-03     2     1     5     6
 2.9022590000e-04     2     1     5     7
-1.2766620000e-04     2     1     5     8
-1.5735812500e-02     2     1     5     9
 5.8064962000e-02     2     1     6     2
 7.0855100000e-05     2     1     6     3
-2.4743090000e-04     2     1     6     4
 1.0725212500e-02     2     1     6     5
 1.0024797220e-01     2     1     6     6
-3.4701000000e-06     2     1     6     7
-1.0879000000e-06     2     1     6     8
-1.6247225000e-03     2     1     6     9
 5.2115300000e-05     2     1     7     2
 1.8757996000e-03     2     1     7     3
 5.4019630100e-02     2     1     7     4
 9.9134950000e-04     2     1     7     5
 1.2946000000e-05     2     1     7     6
 9.9847168500e-02     2     1     7     7
-4.4200000000e-07     2     1     7     8
 2.2165400000e-05     2     1     7     9
-2.2750000000e-07     2     1     8     2
 5.4012716700e-02     2     1     8     3
-1.8691625000e-03     2     1     8     4
-4.3276930000e-04     2     1     8     5
-1.0090000000e-07     2     1     8     6
-5.1200000000e-07     2     1     8     7
 9.9826627700e-02     2     1     8     8
-3.2673000000e-06     2     1     8     9
 1.0053155800e-02     2     1     9     2
-3.9174030000e-04     2     1     9     3
 1.0056663000e-03     2     1     9     4
-5.3858714100e-02     2     1     9     5
 6.4817124000e-03     2     1     9     6
 3.5217400000e-05     2     1     9     7
-5.9252000000e-06     2     1     9     8
 1.2022077900e-01     2     1     9     9
 3.1518777330e-01     2     2     1     1
 2.3726390000e-04     2     2     1     3
-6.8287960000e-04     2     2     1     4
 3.4517731900e-02     2     2     1     5
-5.8064962000e-02     2     2     1     6
-5.2115300000e-05     2     2     1     7
 2.2750000000e-07     2     2     1     8
-1.0053155800e-02     2     2     1     9
 2.3726390000e-04     2     2     3     1
 3.5551740130e-01     2     2     3     3
-1.5025000000e-06     2     2     3     4
 7.3308300000e-05     2     2     3     5
-8.0282000000e-06     2     2     3     6
 2.7556945000e-03     2     2     3     7
 7.9352447900e-02     2     2     3     8
-5.3139560000e-04     2     2     3     9
-6.8287960000e-04     2     2     4     1
-1.5025000000e-06     2     2     4     3
 3.5551760590e-01     2     2     4     4
-2.0608250000e-04     2     2     4     5
-4.0142500000e-05     2     2     4     6
 7.9386394900e-02     2     2     4     7
-2.7481590000e-03     2     2     4     8
 1.3807480000e-03     2     2     4     9
 3.4517731900e-02     2     2     5     1
 7.3308300000e-05     2     2     5     3
-2.0608250000e-04     2     2     5     4
 3.6859056560e-01     2     2     5     5
 3.1580000000e-07     2     2     5     6
 1.4162640000e-03     2     2     5     7
-6.3878730000e-04     2     2     5     8
-7.3274451200e-02     2     2     5     9
-5.8064962000e-02     2     2     6     1
-8.0282000000e-06     2     2     6     3
-4.0142500000e-05     2     2     6     4
 3.1580000000e-07     2     2     6     5
 3.2146721560e-01     2     2     6     6
-1.1839300000e-05     2     2     6     7
-2.4533000000e-06     2     2     6     8
-4.3763805000e-03     2     2     6     9
-5.2115300000e-05     2     2     7     1
 2.7556945000e-03     2     2     7     3
 7.9386394900e-02     2     2     7     4
 1.4162640000e-03     2     2     7     5
-1.1839300000e-05     2     2     7     6
 3.5337860740e-01     2     2     7     7
 4.8630000000e-07     2     2     7     8
 3.6854100000e-05     2     2     7     9
 2.2750000000e-07     2     2     8     1
 7.9352447900e-02     2     2     8     3
-2.7481590000e-03     2     2     8     4
-6.3878730000e-04     2     2     8     5
-2.4533000000e-06     2     2     8     6
 4.8630000000e-07     2     2     8     7
 3.5336519040e-01     2     2     8     8
-1.8379100000e-05     2     2     8     9
-1.0053155800e-02     2     2     9     1
-5.3139560000e-04     2     2     9     3
 1.3807480000e-03     2     2     9     4
-7.3274451200e-02     2     2     9     5
-4.3763805000e-03     2     2     9     6
 3.6854100000e-05     2     2     9     7
-1.8379100000e-05     2     2     9     8
 3.7859079350e-01     2     2     9     9
-8.2746600000e-05     2     3     1     1
-2.3726390000e-04     2     3     1     2
-3.7000000000e-09     2     3     1     4
 1.6277000000e-06     2     3     1     5
-5.6403100000e-05     2     3     1     6
-1.3176290000e-03     2     3     1     7
-3.7931715800e-02     2     3     1     8
 2.7869280000e-04     2     3     1     9