&FCI NORB=  9,NELEC=  2,MS2=0,
 ORBSYM=1,1,1,1,1,1,1,1,1
 ISYM=1,
&END
 3.3408679000e-01     1     1     2     2
 9.6400000000e-08     1     1     2     3
-1.3892000000e-06     1     1     2     4
-2.8480865000e-03     1     1     2     5
-1.0256577660e-01     1     1     2     6
 2.7722210000e-04     1     1     2     7
-2.9776680000e-04     1     1     2     8
-2.3359736600e-02     1     1     2     9
 9.6400000000e-08     1     1     3     2
 3.6891316330e-01     1     1     3     3
-3.8000000000e-09     1     1     3     4
-2.3546000000e-06     1     1     3     5
 1.0855110000e-04     1     1     3     6
 7.5759287200e-02     1     1     3     7
 3.3407614000e-02     1     1     3     8
-8.9010700000e-05     1     1     3     9
-1.3892000000e-06     1     1     4     2
-3.8000000000e-09     1     1     4     3
 3.6892140780e-01     1     1     4     4
 2.2857100000e-05     1     1     4     5
-3.0011740000e-04     1     1     4     6
-3.3409805400e-02     1     1     4     7
 7.5757667700e-02     1     1     4     8
-9.4035000000e-05     1     1     4     9
-2.8480865000e-03     1     1     5     2
-2.3546000000e-06     1     1     5     3
 2.2857100000e-05     1     1     5     4
 4.0104395910e-01     1     1     5     5
 1.8064108500e-02     1     1     5     6
-3.7763800000e-05     1     1     5     7
 1.6781100000e-05     1     1     5     8
-8.0648058200e-02     1     1     5     9
-1.0256577660e-01     1     1     6     2
 1.0855110000e-04     1     1     6     3
-3.0011740000e-04     1     1     6     4
 1.8064108500e-02     1     1     6     5
 4.4389831210e-01     1     1     6     6
-1.6214400000e-05     1     1     6     7
 1.8436900000e-05     1     1     6     8
 1.5619959000e-03     1     1     6     9
 2.7722210000e-04     1     1     7     2
 7.5759287200e-02     1     1     7     3
-3.3409805400e-02     1     1     7     4
-3.7763800000e-05     1     1     7     5
-1.6214400000e-05     1     1     7     6
 4.4660287810e-01     1     1     7     7
 4.3800000000e-08     1     1     7     8
-1.3698400000e-05     1     1     7     9
-2.9776680000e-04     1     1     8     2
 3.3407614000e-02     1     1     8     3
 7.5757667700e-02     1     1     8     4
 1.6781100000e-05     1     1     8     5
 1.8436900000e-05     1     1     8     6
 4.3800000000e-08     1     1     8     7
 4.4660760690e-01     1     1     8     8
 8.0930000000e-07     1     1     8     9
-2.3359736600e-02     1     1     9     2
-8.9010700000e-05     1     1     9     3
-9.4035000000e-05     1     1     9     4
-8.0648058200e-02     1     1     9     5
 1.5619959000e-03     1     1     9     6
-1.3698400000e-05     1     1     9     7
 8.0930000000e-07     1     1     9     8
 4.4943851390e-01     1     1     9     9
-3.3408679000e-01     1     2     2     1
 1.1330000000e-06     1     2     2     3
-6.0965000000e-06     1     2     2     4
-5.6069312000e-03     1     2     2     5
-6.1571790500e-02     1     2     2     6
 1.6735490000e-04     1     2     2     7
-1.7940870000e-04     1     2     2     8
-1.5780698200e-02     1     2     2     9
-9.6400000000e-08     1     2     3     1
 1.0349579310e-01     1     2     3     3
-4.0000000000e-10     1     2     3     4
-5.2200000000e-08     1     2     3     5
 7.3079300000e-05     1     2     3     6
 5.1113124600e-02     1     2     3     7
 2.2540249200e-02     1     2     3     8
-5.2498900000e-05     1     2     3     9
 1.3892000000e-06     1     2     4     1
-3.0000000000e-10     1     2     4     3
 1.0349869700e-01     1     2     4     4
 3.3200000000e-07     1     2     4     5
-2.0344660000e-04     1     2     4     6
-2.2541158900e-02     1     2     4     7
 5.1112139500e-02     1     2     4     8
-5.5934500000e-05     1     2     4     9
 2.8480865000e-03     1     2     5     1
-1.4310000000e-07     1     2     5     3
 1.7092000000e-06     1     2     5     4
 1.1011476820e-01     1     2     5     5
 9.9506198000e-03     1     2     5     6
-1.8582500000e-05     1     2     5     7
 3.8600000000e-06     1     2     5     8
-5.2592750400e-02     1     2     5     9
 1.0256577660e-01     1     2     6     1
 1.6923900000e-05     1     2     6     3
-4.6753000000e-05     1     2     6     4
 2.5750722000e-03     1     2     6     5
 1.1829040960e-01     1     2     6     6
-1.3883700000e-05     1     2     6     7
 1.5243800000e-05     1     2     6     8
 1.8859778000e-03     1     2     6     9
-2.7722210000e-04     1     2     7     1
 1.1908999900e-02     1     2     7     3
-5.2491457000e-03     1     2     7     4
-7.6748000000e-06     1     2     7     5
-1.4374900000e-05     1     2     7     6
 1.1829523670e-01     1     2     7     7
 5.0810000000e-07     1     2     7     8
-1.4162300000e-05     1     2     7     9
 2.9776680000e-04     1     2     8     1
 5.2494474000e-03     1     2     8     3
 1.1907536500e-02     1     2     8     4
 5.6351000000e-06     1     2     8     5
 1.5989400000e-05     1     2     8     6
-1.0254000000e-06     1     2     8     7
 1.1829807920e-01     1     2     8     8
-1.9069000000e-06     1     2     8     9
 2.3359736600e-02     1     2     9     1
-1.0719700000e-05     1     2     9     3
-1.7966000000e-05     1     2     9     4
-1.5526854500e-02     1     2     9     5
 2.6664920000e-04     1     2     9     6
-6.7435000000e-06     1     2     9     7
-2.7641000000e-06     1     2     9     8
 1.2261048770e-01     1     2     9     9
-9.6400000000e-08     1     3     2     1
-1.1330000000e-06     1     3     2     2
-1.0000000000e-10     1     3     2     4
 9.0900000000e-08     1     3     2     5
 5.6155400000e-05     1     3     2     6
 3.9204124700e-02     1     3     2     7
 1.7290801800e-02     1     3     2     8
-4.1779200000e-05     1     3     2     9
-3.6891316330e-01     1     3     3     1
-1.0349579310e-01     1     3     3     2
-4.8929000000e-06     1     3     3     4
-4.6415293000e-03     1     3     3     5
 1.9852441000e-02     1     3     3     6
-4.8793100000e-05     1     3     3     7
 4.6142100000e-05     1     3     3     8
 1.3273102600e-02     1     3     3     9
 3.8000000000e-09     1     3     4     1
 3.0000000000e-10     1     3     4     2
-1.1415000000e-06     1     3     4     4
-1.1000000000e-09     1     3     4     5
-1.9000000000e-07     1     3     4     6
-1.3884600000e-05     1     3     4     7
-2.9000000000e-07     1     3     4     8
 1.3121352000e-03     1     3     4     9
 2.3546000000e-06     1     3     5     1
 1.4310000000e-07     1     3     5     2
 2.0000000000e-10     1     3     5     4
-1.6596000000e-06     1     3     5     5
-2.3100600000e-05     1     3     5     6
-1.3263265300e-02     1     3     5     7
-5.8580964000e-03     1     3     5     8
-1.1357000000e-04     1     3     5     9
-1.0855110000e-04     1     3     6     1
-1.6923900000e-05     1     3     6     2
-7.0000000000e-10     1     3     6     4
 4.2630000000e-07     1     3     6     5
 1.7408200000e-05     1     3     6     6
-7.5267333000e-03     1     3     6     7
-3.3218603000e-03     1     3     6     8
 6.1956000000e-06     1     3     6     9
-7.5759287200e-02     1     3     7     1
-1.1908999900e-02     1     3     7     2
-6.8910000000e-07     1     3     7     4
 2.6440890000e-04     1     3     7     5
 1.7491665000e-02     1     3     7     6
-3.6969300000e-05     1     3     7     7
 6.3360000000e-05     1     3     7     8
-1.6072800000e-05     1     3     7     9
-3.3407614000e-02     1     3     8     1
-5.2494474000e-03     1     3     8     2
-4.8900000000e-07     1     3     8     4
 1.1556840000e-04     1     3     8     5
 7.7126885000e-03     1     3     8     6
-3.9816100000e-05     1     3     8     7
 1.5505200000e-05     1     3     8     8
 3.2153540000e-04     1     3     8     9
 8.9010700000e-05     1     3     9     1
 1.0719700000e-05     1     3     9     2
-2.5000000000e-08     1     3     9     4
-6.4068000000e-06     1     3     9     5
-1.3493800000e-05     1     3     9     6
-3.7680037000e-03     1     3     9     7
-1.9022458000e-03     1     3     9     8
-1.6013300000e-05     1     3     9     9
 1.3892000000e-06     1     4     2     1
 6.0965000000e-06     1     4     2     2
 1.0000000000e-10     1     4     2     3
-1.3772000000e-06     1     4     2     5
-1.5669360000e-04     1     4     2     6
-1.7292013200e-02     1     4     2     7
 3.9204603000e-02     1     4     2     8
-3.7968500000e-05     1     4     2     9
 3.8000000000e-09     1     4     3     1
 4.0000000000e-10     1     4     3     2
 4.8929000000e-06     1     4     3     3
-1.3000000000e-09     1     4     3     5
-1.8930000000e-07     1     4     3     6
-1.3195500000e-05     1     4     3     7
 1.9900000000e-07     1     4     3     8
 1.3121602000e-03     1     4     3     9
-3.6892140780e-01     1     4     4     1
-1.0349869700e-01     1     4     4     2
 1.1415000000e-06     1     4     4     3
-4.6410047000e-03     1     4     4     5
 1.9856184400e-02     1     4     4     6
-3.2331200000e-05     1     4     4     7
 2.5654600000e-05     1     4     4     8
 1.1654473300e-02     1     4     4     9
-2.2857100000e-05     1     4     5     1
-1.7092000000e-06     1     4     5     2
-2.0000000000e-10     1     4     5     3
 9.4698000000e-06     1     4     5     5
 7.7111900000e-05     1     4     5     6
 5.8539177000e-03     1     4     5     7
-1.3264128600e-02     1     4     5     8
-1.4531620000e-04     1     4     5     9
 3.0011740000e-04     1     4     6     1
 4.6753000000e-05     1     4     6     2
 7.0000000000e-10     1     4     6     3
-2.1534000000e-06     1     4     6     5
-4.8302000000e-05     1     4     6     6
 3.3225221000e-03     1     4     6     7
-7.5292924000e-03     1     4     6     8
 2.1555100000e-05     1     4     6     9
 3.3409805400e-02     1     4     7     1
 5.2491457000e-03     1     4     7     2
 6.8910000000e-07     1     4     7     3
-1.1557910000e-04     1     4     7     5
-7.7127074000e-03     1     4     7     6
 2.4431400000e-05     1     4     7     7
-6.7529000000e-06     1     4     7     8
 3.9379810000e-04     1     4     7     9
-7.5757667700e-02     1     4     8     1
-1.1907536500e-02     1     4     8     2
 4.8900000000e-07     1     4     8     3
 2.6392850000e-04     1     4     8     5
 1.7489474700e-02     1     4     8     6
-4.2875600000e-05     1     4     8     7
 4.6267900000e-05     1     4     8     8
-1.4727520000e-04     1     4     8     9
 9.4035000000e-05     1     4     9     1
 1.7966000000e-05     1     4     9     2
 2.5000000000e-08     1     4     9     3
-3.8335000000e-06     1     4     9     5
 8.7947000000e-06     1     4     9     6
 1.4072465000e-03     1     4     9     7
-3.7449532000e-03     1     4     9     8
-1.3845100000e-05     1     4     9     9
 2.8480865000e-03     1     5     2     1
 5.6069312000e-03     1     5     2     2
-9.0900000000e-08     1     5     2     3
 1.3772000000e-06     1     5     2     4
 7.3755476000e-03     1     5     2     6
-1.0907700000e-05     1     5     2     7
-1.7751000000e-06     1     5     2     8
-3.7065895900e-02     1     5     2     9
 2.3546000000e-06     1     5     3     1
 5.2200000000e-08     1     5     3     2
 4.6415293000e-03     1     5     3     3
 1.3000000000e-09     1     5     3     4
-2.3526900000e-05     1     5     3     6
-1.3527674200e-02     1     5     3     7
-5.9736648000e-03     1     5     3     8
-1.0716320000e-04     1     5     3     9
-2.2857100000e-05     1     5     4     1
-3.3200000000e-07     1     5     4     2
 1.1000000000e-09     1     5     4     3
 4.6410047000e-03     1     5     4     4
 7.9265300000e-05     1     5     4     6
 5.9694968000e-03     1     5     4     7
-1.3528057100e-02     1     5     4     8
-1.4148270000e-04     1     5     4     9
-4.0104395910e-01     1     5     5     1
-1.1011476820e-01     1     5     5     2
 1.6596000000e-06     1     5     5     3
-9.4698000000e-06     1     5     5     4
 3.3693988300e-02     1     5     5     6
-1.2785360000e-04     1     5     5     7
 1.5291960000e-04     1     5     5     8
-2.1441672100e-02     1     5     5     9
-1.8064108500e-02     1     5     6     1
-2.5750722000e-03     1     5     6     2
-4.2630000000e-07     1     5     6     3
 2.1534000000e-06     1     5     6     4
 4.4558124000e-03     1     5     6     6
 1.1366700000e-05     1     5     6     7
-1.1265300000e-05     1     5     6     8
 1.8785347800e-02     1     5     6     9
 3.7763800000e-05     1     5     7     1
 7.6748000000e-06     1     5     7     2
-2.6440890000e-04     1     5     7     3
 1.1557910000e-04     1     5     7     4
 1.2208500000e-05     1     5     7     6
 6.9636448000e-03     1     5     7     7
-2.2792000000e-06     1     5     7     8
-7.4277500000e-05     1     5     7     9
-1.6781100000e-05     1     5     8     1
-5.6351000000e-06     1     5     8     2
-1.1556840000e-04     1     5     8     3
-2.6392850000e-04     1     5     8     4
-1.8705500000e-05     1     5     8     6
 2.3391000000e-06     1     5     8     7
 6.9632779000e-03     1     5     8     8
 1.8181800000e-05     1     5     8     9
 8.0648058200e-02     1     5     9     1
 1.5526854500e-02     1     5     9     2
 6.4068000000e-06     1     5     9     3
 3.8335000000e-06     1     5     9     4
-8.6132022000e-03     1     5     9     6
 3.1719300000e-05     1     5     9     7
-3.0989000000e-06     1     5     9     8
 3.5562010000e-03     1     5     9     9
 1.0256577660e-01     1     6     2     1
 6.1571790500e-02     1     6     2     2
-5.6155400000e-05     1     6     2     3
 1.5669360000e-04     1     6     2     4
-7.3755476000e-03     1     6     2     5
 4.9120000000e-07     1     6     2     7
-7.4560000000e-07     1     6     2     8
 1.6193286000e-03     1     6     2     9
-1.0855110000e-04     1     6     3     1
-7.3079300000e-05     1     6     3     2
-1.9852441000e-02     1     6     3     3
 1.8930000000e-07     1     6     3     4
 2.3526900000e-05     1     6     3     5
-2.5018398300e-02     1     6     3     7
-1.1034548800e-02     1     6     3     8
 1.9689400000e-05     1     6     3     9
 3.0011740000e-04     1     6     4     1
 2.0344660000e-04     1     6     4     2
 1.9000000000e-07     1     6     4     3
-1.9856184400e-02     1     6     4     4
-7.9265300000e-05     1     6     4     5
 1.1035229500e-02     1     6     4     7
-2.5018767100e-02     1     6     4     8
 1.2760400000e-05     1     6     4     9
-1.8064108500e-02     1     6     5     1
-9.9506198000e-03     1     6     5     2
 2.3100600000e-05     1     6     5     3
-7.7111900000e-05     1     6     5     4
-3.3693988300e-02     1     6     5     5
-8.4180000000e-07     1     6     5     7
 7.4402000000e-06     1     6     5     8
 2.7398550000e-02     1     6     5     9
-4.4389831210e-01     1     6     6     1
-1.1829040960e-01     1     6     6     2
-1.7408200000e-05     1     6     6     3
 4.8302000000e-05     1     6     6     4
-4.4558124000e-03     1     6     6     5
-3.5835300000e-05     1     6     6     7
 3.8799200000e-05     1     6     6     8
-4.1491746000e-03     1     6     6     9
 1.6214400000e-05     1     6     7     1
 1.4374900000e-05     1     6     7     2
-1.7491665000e-02     1     6     7     3
 7.7127074000e-03     1     6     7     4
-1.2208500000e-05     1     6     7     5
-1.2518320800e-02     1     6     7     7
-7.7560000000e-07     1     6     7     8
 9.4396000000e-06     1     6     7     9
-1.8436900000e-05     1     6     8     1
-1.5989400000e-05     1     6     8     2
-7.7126885000e-03     1     6     8     3
-1.7489474700e-02     1     6     8     4
 1.8705500000e-05     1     6     8     5
-6.3000000000e-08     1     6     8     7
-1.2517976000e-02     1     6     8     8
 7.3300000000e-07     1     6     8     9
-1.5619959000e-03     1     6     9     1
-2.6664920000e-04     1     6     9     2
 1.3493800000e-05     1     6     9     3
-8.7947000000e-06     1     6     9     4
 8.6132022000e-03     1     6     9     5
 2.1306000000e-06     1     6     9     7
-1.9730000000e-07     1     6     9     8
-1.0404964100e-02     1     6     9     9
-2.7722210000e-04     1     7     2     1
-1.6735490000e-04     1     7     2     2
-3.9204124700e-02     1     7     2     3
 1.7292013200e-02     1     7     2     4
 1.0907700000e-05     1     7     2     5
-4.9120000000e-07     1     7     2     6
 1.5335000000e-06     1     7     2     8
-7.4188000000e-06     1     7     2     9
-7.5759287200e-02     1     7     3     1
-5.1113124600e-02     1     7     3     2
 4.8793100000e-05     1     7     3     3
 1.3195500000e-05     1     7     3     4
 1.3527674200e-02     1     7     3     5
 2.5018398300e-02     1     7     3     6
 1.0317610000e-04     1     7     3     8
 3.7519309000e-03     1     7     3     9
 3.3409805400e-02     1     7     4     1
 2.2541158900e-02     1     7     4     2
 1.3884600000e-05     1     7     4     3
 3.2331200000e-05     1     7     4     4
-5.9694968000e-03     1     7     4     5
-1.1035229500e-02     1     7     4     6
 3.6122700000e-05     1     7     4     8
-1.0134484000e-03     1     7     4     9
 3.7763800000e-05     1     7     5     1
 1.8582500000e-05     1     7     5     2
 1.3263265300e-02     1     7     5     3
-5.8539177000e-03     1     7     5     4
 1.2785360000e-04     1     7     5     5
 8.4180000000e-07     1     7     5     6
-4.6183000000e-06     1     7     5     8
-1.0599680000e-04     1     7     5     9
 1.6214400000e-05     1     7     6     1
 1.3883700000e-05     1     7     6     2
 7.5267333000e-03     1     7     6     3
-3.3225221000e-03     1     7     6     4
-1.1366700000e-05     1     7     6     5
 3.5835300000e-05     1     7     6     6
-7.1260000000e-07     1     7     6     8
 7.3090000000e-06     1     7     6     9
-4.4660287810e-01     1     7     7     1
-1.1829523670e-01     1     7     7     2
 3.6969300000e-05     1     7     7     3
-2.4431400000e-05     1     7     7     4
-6.9636448000e-03     1     7     7     5
 1.2518320800e-02     1     7     7     6
 4.0822700000e-05     1     7     7     8
-2.1945531000e-03     1     7     7     9
-4.3800000000e-08     1     7     8     1
 1.0254000000e-06     1     7     8     2
 3.9816100000e-05     1     7     8     3
 4.2875600000e-05     1     7     8     4
-2.3391000000e-06     1     7     8     5
 6.3000000000e-08     1     7     8     6
 3.7641400000e-05     1     7     8     8
 7.0046800000e-05     1     7     8     9
 1.3698400000e-05     1     7     9     1
 6.7435000000e-06     1     7     9     2
 3.7680037000e-03     1     7     9     3
-1.4072465000e-03     1     7     9     4
-3.1719300000e-05     1     7     9     5
-2.1306000000e-06     1     7     9     6
 5.9700000000e-07     1     7     9     8
 2.8773400000e-05     1     7     9     9
 2.9776680000e-04     1     8     2     1
 1.7940870000e-04     1     8     2     2
-1.7290801800e-02     1     8     2     3
-3.9204603000e-02     1     8     2     4
 1.7751000000e-06     1     8     2     5
 7.4560000000e-07     1     8     2     6
-1.5335000000e-06     1     8     2     7
 8.5720000000e-07     1     8     2     9
-3.3407614000e-02     1     8     3     1
-2.2540249200e-02     1     8     3     2
-4.6142100000e-05     1     8     3     3
-1.9900000000e-07     1     8     3     4
 5.9736648000e-03     1     8     3     5
 1.1034548800e-02     1     8     3     6
-1.0317610000e-04     1     8     3     7
 2.2237812000e-03     1     8     3     9
-7.5757667700e-02     1     8     4     1
-5.1112139500e-02     1     8     4     2
 2.9000000000e-07     1     8     4     3
-2.5654600000e-05     1     8     4     4
 1.3528057100e-02     1     8     4     5
 2.5018767100e-02     1     8     4     6
-3.6122700000e-05     1     8     4     7
 3.5976780000e-03     1     8     4     9
-1.6781100000e-05     1     8     5     1
-3.8600000000e-06     1     8     5     2
 5.8580964000e-03     1     8     5     3
 1.3264128600e-02     1     8     5     4
-1.5291960000e-04     1     8     5     5
-7.4402000000e-06     1     8     5     6
 4.6183000000e-06     1     8     5     7
 2.1280700000e-05     1     8     5     9
-1.8436900000e-05     1     8     6     1
-1.5243800000e-05     1     8     6     2
 3.3218603000e-03     1     8     6     3
 7.5292924000e-03     1     8     6     4
 1.1265300000e-05     1     8     6     5
-3.8799200000e-05     1     8     6     6
 7.1260000000e-07     1     8     6     7
 9.3030000000e-07     1     8     6     9
-4.3800000000e-08     1     8     7     1
-5.0810000000e-07     1     8     7     2
-6.3360000000e-05     1     8     7     3
 6.7529000000e-06     1     8     7     4
 2.2792000000e-06     1     8     7     5
 7.7560000000e-07     1     8     7     6
-4.0822700000e-05     1     8     7     7
 6.9449800000e-05     1     8     7     9
-4.4660760690e-01     1     8     8     1
-1.1829807920e-01     1     8     8     2
-1.5505200000e-05     1     8     8     3
-4.6267900000e-05     1     8     8     4
-6.9632779000e-03     1     8     8     5
 1.2517976000e-02     1     8     8     6
-3.7641400000e-05     1     8     8     7
-2.1662446000e-03     1     8     8     9
-8.0930000000e-07     1     8     9     1
 2.7641000000e-06     1     8     9     2
 1.9022458000e-03     1     8     9     3
 3.7449532000e-03     1     8     9     4
 3.0989000000e-06     1     8     9     5
 1.9730000000e-07     1     8     9     6
-5.9700000000e-07     1     8     9     7
-4.1089800000e-05     1     8     9     9
 2.3359736600e-02     1     9     2     1
 1.5780698200e-02     1     9     2     2
 4.1779200000e-05     1     9     2     3
 3.7968500000e-05     1     9     2     4
 3.7065895900e-02     1     9     2     5
-1.6193286000e-03     1     9     2     6
 7.4188000000e-06     1     9     2     7
-8.5720000000e-07     1     9     2     8
 8.9010700000e-05     1     9     3     1
 5.2498900000e-05     1     9     3     2
-1.3273102600e-02     1     9     3     3
-1.3121602000e-03     1     9     3     4
 1.0716320000e-04     1     9     3     5
-1.9689400000e-05     1     9     3     6
-3.7519309000e-03     1     9     3     7
-2.2237812000e-03     1     9     3     8
 9.4035000000e-05     1     9     4     1
 5.5934500000e-05     1     9     4     2
-1.3121352000e-03     1     9     4     3
-1.1654473300e-02     1     9     4     4
 1.4148270000e-04     1     9     4     5
-1.2760400000e-05     1     9     4     6
 1.0134484000e-03     1     9     4     7
-3.5976780000e-03     1     9     4     8
 8.0648058200e-02     1     9     5     1
 5.2592750400e-02     1     9     5     2
 1.1357000000e-04     1     9     5     3
 1.4531620000e-04     1     9     5     4
 2.1441672100e-02     1     9     5     5
-2.7398550000e-02     1     9     5     6
 1.0599680000e-04     1     9     5     7
-2.1280700000e-05     1     9     5     8
-1.5619959000e-03     1     9     6     1
-1.8859778000e-03     1     9     6     2
-6.1956000000e-06     1     9     6     3
-2.1555100000e-05     1     9     6     4
-1.8785347800e-02     1     9     6     5
 4.1491746000e-03     1     9     6     6
-7.3090000000e-06     1     9     6     7
-9.3030000000e-07     1     9     6     8
 1.3698400000e-05     1     9     7     1
 1.4162300000e-05     1     9     7     2
 1.6072800000e-05     1     9     7     3
-3.9379810000e-04     1     9     7     4
 7.4277500000e-05     1     9     7     5
-9.4396000000e-06     1     9     7     6
 2.1945531000e-03     1     9     7     7
-6.9449800000e-05     1     9     7     8
-8.0930000000e-07     1     9     8     1
 1.9069000000e-06     1     9     8     2
-3.2153540000e-04     1     9     8     3
 1.4727520000e-04     1     9     8     4
-1.8181800000e-05     1     9     8     5
-7.3300000000e-07     1     9     8     6
-7.0046800000e-05     1     9     8     7
 2.1662446000e-03     1     9     8     8
-4.4943851390e-01     1     9     9     1
-1.2261048770e-01     1     9     9     2
 1.6013300000e-05     1     9     9     3
 1.3845100000e-05     1     9     9     4
-3.5562010000e-03     1     9     9     5
 1.0404964100e-02     1     9     9     6
-2.8773400000e-05     1     9     9     7
 4.1089800000e-05     1     9     9     8
-3.3408679000e-01     2     1     1     2
-9.6400000000e-08     2     1     1     3
 1.3892000000e-06     2     1     1     4
 2.8480865000e-03     2     1     1     5
 1.0256577660e-01     2     1     1     6
-2.7722210000e-04     2     1     1     7
 2.9776680000e-04     2     1     1     8
 2.3359736600e-02     2     1     1     9
 1.1330000000e-06     2     1     3     2
 1.0349579310e-01     2     1     3     3
-3.0000000000e-10     2     1     3     4
-1.4310000000e-07     2     1     3     5
 1.6923900000e-05     2     1     3     6
 1.1908999900e-02     2     1     3     7
 5.2494474000e-03     2     1     3     8
-1.0719700000e-05     2     1     3     9
-6.0965000000e-06     2     1     4     2
-4.0000000000e-10     2     1     4     3
 1.0349869700e-01     2     1     4     4
 1.7092000000e-06     2     1     4     5
-4.6753000000e-05     2     1     4     6
-5.2491457000e-03     2     1     4     7
 1.1907536500e-02     2     1     4     8
-1.7966000000e-05     2     1     4     9
-5.6069312000e-03     2     1     5     2
-5.2200000000e-08     2     1     5     3
 3.3200000000e-07     2     1     5     4
 1.1011476820e-01     2     1     5     5
 2.5750722000e-03     2     1     5     6
-7.6748000000e-06     2     1     5     7
 5.6351000000e-06     2     1     5     8
-1.5526854500e-02     2     1     5     9
-6.1571790500e-02     2     1     6     2
 7.3079300000e-05     2     1     6     3
-2.0344660000e-04     2     1     6     4
 9.9506198000e-03     2     1     6     5
 1.1829040960e-01     2     1     6     6
-1.4374900000e-05     2     1     6     7
 1.5989400000e-05     2     1     6     8
 2.6664920000e-04     2     1     6     9
 1.6735490000e-04     2     1     7     2
 5.1113124600e-02     2     1     7     3
-2.2541158900e-02     2     1     7     4
-1.8582500000e-05     2     1     7     5
-1.3883700000e-05     2     1     7     6
 1.1829523670e-01     2     1     7     7
-1.0254000000e-06     2     1     7     8
-6.7435000000e-06     2     1     7     9
-1.7940870000e-04     2     1     8     2
 2.2540249200e-02     2     1     8     3
 5.1112139500e-02     2     1     8     4
 3.8600000000e-06     2     1     8     5
 1.5243800000e-05     2     1     8     6
 5.0810000000e-07     2     1     8     7
 1.1829807920e-01     2     1     8     8
-2.7641000000e-06     2     1     8     9
-1.5780698200e-02     2     1     9     2
-5.2498900000e-05     2     1     9     3
-5.5934500000e-05     2     1     9     4
-5.2592750400e-02     2     1     9     5
 1.8859778000e-03     2     1     9     6
-1.4162300000e-05     2     1     9     7
-1.9069000000e-06     2     1     9     8
 1.2261048770e-01     2     1     9     9
 3.3408679000e-01     2     2     1     1
-1.1330000000e-06     2     2     1     3
 6.0965000000e-06     2     2     1     4
 5.6069312000e-03     2     2     1     5
 6.1571790500e-02     2     2     1     6
-1.6735490000e-04     2     2     1     7
 1.7940870000e-04     2     2     1     8
 1.5780698200e-02     2     2     1     9
-1.1330000000e-06     2     2     3     1
 3.7425580190e-01     2     2     3     3
-2.8000000000e-09     2     2     3     4
-1.5061000000e-06     2     2     3     5
 1.1980010000e-04     2     2     3     6
 8.3583527800e-02     2     2     3     7
 3.6859220100e-02     2     2     3     8
-9.4209800000e-05     2     2     3     9
 6.0965000000e-06     2     2     4     1
-2.8000000000e-09     2     2     4     3
 3.7426491860e-01     2     2     4     4
 1.4623400000e-05     2     2     4     5
-3.3380050000e-04     2     2     4     6
-3.6860376300e-02     2     2     4     7
 8.3579331800e-02     2     2     4     8
-8.9078100000e-05     2     2     4     9
 5.6069312000e-03     2     2     5     1
-1.5061000000e-06     2     2     5     3
 1.4623400000e-05     2     2     5     4
 4.0092654580e-01     2     2     5     5
 1.5507914900e-02     2     2     5     6
-2.6018800000e-05     2     2     5     7
 2.1250000000e-06     2     2     5     8
-7.5463227400e-02     2     2     5     9
 6.1571790500e-02     2     2     6     1
 1.1980010000e-04     2     2     6     3
-3.3380050000e-04     2     2     6     4
 1.5507914900e-02     2     2     6     5
 3.4346796460e-01     2     2     6     6
 7.1912600000e-05     2     2     6     7
-7.6566900000e-05     2     2     6     8
-2.8072043000e-03     2     2     6     9
-1.6735490000e-04     2     2     7     1
 8.3583527800e-02     2     2     7     3
-3.6860376300e-02     2     2     7     4
-2.6018800000e-05     2     2     7     5
 7.1912600000e-05     2     2     7     6
 3.7657178100e-01     2     2     7     7
 1.8521000000e-06     2     2     7     8
 1.8467500000e-05     2     2     7     9
 1.7940870000e-04     2     2     8     1
 3.6859220100e-02     2     2     8     3
 8.3579331800e-02     2     2     8     4
 2.1250000000e-06     2     2     8     5
-7.6566900000e-05     2     2     8     6
 1.8521000000e-06     2     2     8     7
 3.7657533360e-01     2     2     8     8
 1.4649200000e-05     2     2     8     9
 1.5780698200e-02     2     2     9     1
-9.4209800000e-05     2     2     9     3
-8.9078100000e-05     2     2     9     4
-7.5463227400e-02     2     2     9     5
-2.8072043000e-03     2     2     9     6
 1.8467500000e-05     2     2     9     7
 1.4649200000e-05     2     2     9     8
 3.7803778270e-01     2     2     9     9
 9.6400000000e-08     2     3     1     1
 1.1330000000e-06     2     3     1     2
 1.0000000000e-10     2     3     1     4
-9.0900000000e-08     2     3     1     5
-5.6155400000e-05     2     3     1     6
-3.9204124700e-02     2     3     1     7
-1.7290801800e-02     2     3     1     8
 4.1779200000e-05     2     3     1     9