&FCI NORB=  9,NELEC=  2,MS2=0,
 ORBSYM=1,1,1,1,1,1,1,1,1
 ISYM=1,
&END
 8.3605262800e-02     1     1     2     2
 2.7146135000e-02     1     1     2     3
-1.5737937000e-03     1     1     2     4
-3.9629400000e-05     1     1     2     5
-3.2960000000e-06     1     1     2     6
-2.0875213000e-03     1     1     2     7
-4.0599013000e-03     1     1     2     8
 8.4413000000e-05     1     1     2     9
 2.7146135000e-02     1     1     3     2
 2.4461705570e-01     1     1     3     3
-4.0011140000e-04     1     1     3     4
-7.4698000000e-06     1     1     3     5
-6.0760000000e-07     1     1     3     6
 7.6246817300e-02     1     1     3     7
-2.7188928800e-02     1     1     3     8
 5.6946630000e-04     1     1     3     9
-1.5737937000e-03     1     1     4     2
-4.0011140000e-04     1     1     4     3
 2.7564712140e-01     1     1     4     4
-2.6345400000e-05     1     1     4     5
-2.3206000000e-06     1     1     4     6
 1.8389193500e-02     1     1     4     7
 6.4711385600e-02     1     1     4     8
 1.6316430000e-04     1     1     4     9
-3.9629400000e-05     1     1     5     2
-7.4698000000e-06     1     1     5     3
-2.6345400000e-05     1     1     5     4
 2.7727630770e-01     1     1     5     5
 1.9520000000e-07     1     1     5     6
 4.1472810000e-04     1     1     5     7
 1.5387040000e-04     1     1     5     8
-6.5642405000e-02     1     1     5     9
-3.2960000000e-06     1     1     6     2
-6.0760000000e-07     1     1     6     3
-2.3206000000e-06     1     1     6     4
 1.9520000000e-07     1     1     6     5
 2.7727787450e-01     1     1     6     6
 3.6207500000e-05     1     1     6     7
-4.4081640000e-04     1     1     6     8
-6.3143597000e-03     1     1     6     9
-2.0875213000e-03     1     1     7     2
 7.6246817300e-02     1     1     7     3
 1.8389193500e-02     1     1     7     4
 4.1472810000e-04     1     1     7     5
 3.6207500000e-05     1     1     7     6
 3.0097779800e-01     1     1     7     7
-2.8550723000e-03     1     1     7     8
 5.3126000000e-05     1     1     7     9
-4.0599013000e-03     1     1     8     2
-2.7188928800e-02     1     1     8     3
 6.4711385600e-02     1     1     8     4
 1.5387040000e-04     1     1     8     5
-4.4081640000e-04     1     1     8     6
-2.8550723000e-03     1     1     8     7
 3.1393979880e-01     1     1     8     8
 2.0511490000e-04     1     1     8     9
 8.4413000000e-05     1     1     9     2
 5.6946630000e-04     1     1     9     3
 1.6316430000e-04     1     1     9     4
-6.5642405000e-02     1     1     9     5
-6.3143597000e-03     1     1     9     6
 5.3126000000e-05     1     1     9     7
 2.0511490000e-04     1     1     9     8
 3.2548068020e-01     1     1     9     9
-8.3605262800e-02     1     2     2     1
-1.5663897100e-02     1     2     2     3
-7.5104439000e-03     1     2     2     4
-1.7897350000e-04     1     2     2     5
-1.5194800000e-05     1     2     2     6
 1.8590928000e-03     1     2     2     7
 4.4853225000e-03     1     2     2     8
-9.6626500000e-05     1     2     2     9
-2.7146135000e-02     1     2     3     1
-8.4380174900e-02     1     2     3     3
 2.0956237000e-03     1     2     3     4
 4.8408800000e-05     1     2     3     5
 4.0623000000e-06     1     2     3     6
-4.9401330600e-02     1     2     3     7
 1.2165129300e-02     1     2     3     8
-2.4958490000e-04     1     2     3     9
 1.5737937000e-03     1     2     4     1
 2.9363197000e-03     1     2     4     3
-1.1057493530e-01     1     2     4     4
 1.9312200000e-05     1     2     4     5
 1.6966000000e-06     1     2     4     6
-1.1225995900e-02     1     2     4     7
-4.0975084800e-02     1     2     4     8
-8.1263100000e-05     1     2     4     9
 3.9629400000e-05     1     2     5     1
 6.8792900000e-05     1     2     5     3
 1.9966300000e-05     1     2     5     4
-1.1168077290e-01     1     2     5     5
-8.3500000000e-08     1     2     5     6
-2.5213180000e-04     1     2     5     7
-1.1657110000e-04     1     2     5     8
 4.0681458300e-02     1     2     5     9
 3.2960000000e-06     1     2     6     1
 5.7942000000e-06     1     2     6     3
 1.7334000000e-06     1     2     6     4
-1.2850000000e-07     1     2     6     5
-1.1168172340e-01     1     2     6     6
-2.1909700000e-05     1     2     6     7
 2.7126630000e-04     1     2     6     8
 3.9137408000e-03     1     2     6     9
 2.0875213000e-03     1     2     7     1
-4.4496589700e-02     1     2     7     3
-8.8333253000e-03     1     2     7     4
-1.9639320000e-04     1     2     7     5
-1.7114900000e-05     1     2     7     6
-1.1918507630e-01     1     2     7     7
 3.3145024000e-03     1     2     7     8
-6.5304300000e-05     1     2     7     9
 4.0599013000e-03     1     2     8     1
 1.0941147900e-02     1     2     8     3
-3.5548546800e-02     1     2     8     4
-9.6260700000e-05     1     2     8     5
 2.3704320000e-04     1     2     8     6
 3.9647680000e-03     1     2     8     7
-1.3099914450e-01     1     2     8     8
-1.2745990000e-04     1     2     8     9
-8.4413000000e-05     1     2     9     1
-2.2428710000e-04     1     2     9     3
-7.4708500000e-05     1     2     9     4
 3.5494630200e-02     1     2     9     5
 3.4146890000e-03     1     2     9     6
-7.9903600000e-05     1     2     9     7
-1.2777660000e-04     1     2     9     8
-1.3812750410e-01     1     2     9     9
-2.7146135000e-02     1     3     2     1
 1.5663897100e-02     1     3     2     2
-8.4069600000e-04     1     3     2     4
-2.0384100000e-05     1     3     2     5
-1.7319000000e-06     1     3     2     6
-4.9047409000e-03     1     3     2     7
 1.2239814000e-03     1     3     2     8
-2.5297800000e-05     1     3     2     9
-2.4461705570e-01     1     3     3     1
 8.4380174900e-02     1     3     3     2
-8.6416568000e-03     1     3     3     4
-2.0748990000e-04     1     3     3     5
-1.7658800000e-05     1     3     3     6
-4.0108727800e-02     1     3     3     7
 1.4363049900e-02     1     3     3     8
-2.9676600000e-04     1     3     3     9
 4.0011140000e-04     1     3     4     1
-2.9363197000e-03     1     3     4     2
-6.6724761700e-02     1     3     4     4
 6.9279000000e-06     1     3     4     5
 6.0930000000e-07     1     3     4     6
-9.8565344000e-03     1     3     4     7
-4.2764955200e-02     1     3     4     8
-1.3087740000e-04     1     3     4     9
 7.4698000000e-06     1     3     5     1
-6.8792900000e-05     1     3     5     2
 7.3543000000e-06     1     3     5     4
-6.7238585100e-02     1     3     5     5
-5.3000000000e-08     1     3     5     6
-2.1965910000e-04     1     3     5     7
-8.0537400000e-05     1     3     5     8
 4.4497464100e-02     1     3     5     9
 6.0760000000e-07     1     3     6     1
-5.7942000000e-06     1     3     6     2
 6.4820000000e-07     1     3     6     4
-6.9800000000e-08     1     3     6     5
-6.7239103400e-02     1     3     6     6
-1.9208900000e-05     1     3     6     7
 2.9990170000e-04     1     3     6     8
 4.2810947000e-03     1     3     6     9
-7.6246817300e-02     1     3     7     1
 4.4496589700e-02     1     3     7     2
-4.2166690000e-03     1     3     7     4
-9.4923000000e-05     1     3     7     5
-8.2200000000e-06     1     3     7     6
-6.5769018700e-02     1     3     7     7
 1.3165435000e-03     1     3     7     8
-2.5363900000e-05     1     3     7     9
 2.7188928800e-02     1     3     8     1
-1.0941147900e-02     1     3     8     2
-1.2965082200e-02     1     3     8     4
-3.7141200000e-05     1     3     8     5
 8.5234100000e-05     1     3     8     6
 2.6568237000e-03     1     3     8     7
-7.5335157700e-02     1     3     8     8
-3.2458200000e-05     1     3     8     9
-5.6946630000e-04     1     3     9     1
 2.2428710000e-04     1     3     9     2
-2.4933000000e-05     1     3     9     4
 1.2798052400e-02     1     3     9     5
 1.2306129000e-03     1     3     9     6
-5.4560000000e-05     1     3     9     7
-3.0302900000e-05     1     3     9     8
-7.7869818400e-02     1     3     9     9
 1.5737937000e-03     1     4     2     1
 7.5104439000e-03     1     4     2     2
 8.4069600000e-04     1     4     2     3
-6.5410000000e-07     1     4     2     5
-3.6800000000e-08     1     4     2     6
-2.3926706000e-03     1     4     2     7
-5.4265380000e-03     1     4     2     8
-6.5546000000e-06     1     4     2     9
 4.0011140000e-04     1     4     3     1
-2.0956237000e-03     1     4     3     2
 8.6416568000e-03     1     4     3     3
-4.2640000000e-07     1     4     3     5
-3.8900000000e-08     1     4     3     6
-5.6398654000e-03     1     4     3     7
-2.9799873000e-02     1     4     3     8
-1.0594440000e-04     1     4     3     9
-2.7564712140e-01     1     4     4     1
 1.1057493530e-01     1     4     4     2
 6.6724761700e-02     1     4     4     3
-2.5543930000e-04     1     4     4     5
-2.1733500000e-05     1     4     4     6
 2.0453391100e-02     1     4     4     7
-1.1111410000e-03     1     4     4     8
 5.8427300000e-05     1     4     4     9
 2.6345400000e-05     1     4     5     1
-1.9966300000e-05     1     4     5     2
-7.3543000000e-06     1     4     5     3
 1.0738201600e-02     1     4     5     5
 8.8000000000e-09     1     4     5     6
 5.1281000000e-06     1     4     5     7
-5.0133200000e-05     1     4     5     8
-1.1270795000e-03     1     4     5     9
 2.3206000000e-06     1     4     6     1
-1.7334000000e-06     1     4     6     2
-6.4820000000e-07     1     4     6     3
 7.4000000000e-09     1     4     6     5
 1.0738185000e-02     1     4     6     6
 1.1514000000e-06     1     4     6     7
-1.2198300000e-05     1     4     6     8
-1.0483820000e-04     1     4     6     9
-1.8389193500e-02     1     4     7     1
 8.8333253000e-03     1     4     7     2
 4.2166690000e-03     1     4     7     3
 7.9300000000e-08     1     4     7     5
 1.3700000000e-08     1     4     7     6
 1.6611058600e-02     1     4     7     7
-9.5047420000e-03     1     4     7     8
 1.4692200000e-05     1     4     7     9
-6.4711385600e-02     1     4     8     1
 3.5548546800e-02     1     4     8     2
 1.2965082200e-02     1     4     8     3
-1.1903900000e-05     1     4     8     5
-4.5737000000e-06     1     4     8     6
 1.2744082300e-02     1     4     8     7
 8.6032682000e-03     1     4     8     8
 7.3701100000e-05     1     4     8     9
-1.6316430000e-04     1     4     9     1
 7.4708500000e-05     1     4     9     2
 2.4933000000e-05     1     4     9     3
-5.0792750000e-04     1     4     9     5
-4.8853400000e-05     1     4     9     6
 5.1147900000e-05     1     4     9     7
-5.9624500000e-05     1     4     9     8
 1.2082957600e-02     1     4     9     9
 3.9629400000e-05     1     5     2     1
 1.7897350000e-04     1     5     2     2
 2.0384100000e-05     1     5     2     3
 6.5410000000e-07     1     5     2     4
 4.5000000000e-08     1     5     2     6
-5.5738600000e-05     1     5     2     7
-2.0310400000e-05     1     5     2     8
 5.1868281000e-03     1     5     2     9
 7.4698000000e-06     1     5     3     1
-4.8408800000e-05     1     5     3     2
 2.0748990000e-04     1     5     3     3
 4.2640000000e-07     1     5     3     4
 1.6800000000e-08     1     5     3     6
-1.2473610000e-04     1     5     3     7
-4.3396200000e-05     1     5     3     8
 3.1699411700e-02     1     5     3     9
 2.6345400000e-05     1     5     4     1
-1.9312200000e-05     1     5     4     2
-6.9279000000e-06     1     5     4     3
 2.5543930000e-04     1     5     4     4
 1.4000000000e-09     1     5     4     6
 5.0488000000e-06     1     5     4     7
-3.8229300000e-05     1     5     4     8
-6.1915200000e-04     1     5     4     9
-2.7727630770e-01     1     5     5     1
 1.1168077290e-01     1     5     5     2
 6.7238585100e-02     1     5     5     3
-1.0738201600e-02     1     5     5     4
-2.1898000000e-05     1     5     5     6
 2.0455675900e-02     1     5     5     7
 1.3785030000e-04     1     5     5     8
-4.2364600000e-05     1     5     5     9
-1.9520000000e-07     1     5     6     1
 1.2850000000e-07     1     5     6     2
 6.9800000000e-08     1     5     6     3
-7.4000000000e-09     1     5     6     4
 2.5757150000e-04     1     5     6     6
-1.6342000000e-06     1     5     6     7
-9.9900000000e-08     1     5     6     8
-4.3292000000e-06     1     5     6     9
-4.1472810000e-04     1     5     7     1
 1.9639320000e-04     1     5     7     2
 9.4923000000e-05     1     5     7     3
-7.9300000000e-08     1     5     7     4
-2.7000000000e-08     1     5     7     6
 3.9290170000e-04     1     5     7     7
-5.6758700000e-05     1     5     7     8
 8.3435465000e-03     1     5     7     9
-1.5387040000e-04     1     5     8     1
 9.6260700000e-05     1     5     8     2
 3.7141200000e-05     1     5     8     3
 1.1903900000e-05     1     5     8     4
-7.6900000000e-08     1     5     8     6
 1.2706100000e-05     1     5     8     7
 3.1958130000e-04     1     5     8     8
-4.7214130000e-04     1     5     8     9
 6.5642405000e-02     1     5     9     1
-3.5494630200e-02     1     5     9     2
-1.2798052400e-02     1     5     9     3
 5.0792750000e-04     1     5     9     4
-1.2350000000e-07     1     5     9     6
-1.3479330600e-02     1     5     9     7
 5.4121147000e-03     1     5     9     8
 1.8272380000e-04     1     5     9     9
 3.2960000000e-06     1     6     2     1
 1.5194800000e-05     1     6     2     2
 1.7319000000e-06     1     6     2     3
 3.6800000000e-08     1     6     2     4
-4.5000000000e-08     1     6     2     5
-4.7948000000e-06     1     6     2     7
 3.4223100000e-05     1     6     2     8
 4.9905180000e-04     1     6     2     9
 6.0760000000e-07     1     6     3     1
-4.0623000000e-06     1     6     3     2
 1.7658800000e-05     1     6     3     3
 3.8900000000e-08     1     6     3     4
-1.6800000000e-08     1     6     3     5
-1.0988900000e-05     1     6     3     7
 2.1466760000e-04     1     6     3     8
 3.0504818000e-03     1     6     3     9
 2.3206000000e-06     1     6     4     1
-1.6966000000e-06     1     6     4     2
-6.0930000000e-07     1     6     4     3
 2.1733500000e-05     1     6     4     4
-1.4000000000e-09     1     6     4     5
 1.1377000000e-06     1     6     4     7
-7.6246000000e-06     1     6     4     8
-5.5984800000e-05     1     6     4     9
-1.9520000000e-07     1     6     5     1
 8.3500000000e-08     1     6     5     2
 5.3000000000e-08     1     6     5     3
-8.8000000000e-09     1     6     5     4
 2.1898000000e-05     1     6     5     5
-1.6072000000e-06     1     6     5     7
-2.3000000000e-08     1     6     5     8
-4.2057000000e-06     1     6     5     9
-2.7727787450e-01     1     6     6     1
 1.1168172340e-01     1     6     6     2
 6.7239103400e-02     1     6     6     3
-1.0738185000e-02     1     6     6     4
-2.5757150000e-04     1     6     6     5
 2.0465948400e-02     1     6     6     7
 1.3904570000e-04     1     6     6     8
-1.5976700000e-05     1     6     6     9
-3.6207500000e-05     1     6     7     1
 1.7114900000e-05     1     6     7     2
 8.2200000000e-06     1     6     7     3
-1.3700000000e-08     1     6     7     4
 2.7000000000e-08     1     6     7     5
 3.3548100000e-05     1     6     7     7
 4.9624500000e-05     1     6     7     8
 8.0331690000e-04     1     6     7     9
 4.4081640000e-04     1     6     8     1
-2.3704320000e-04     1     6     8     2
-8.5234100000e-05     1     6     8     3
 4.5737000000e-06     1     6     8     4
 7.6900000000e-08     1     6     8     5
-9.3999800000e-05     1     6     8     7
 6.2600800000e-05     1     6     8     8
-4.5897900000e-05     1     6     8     9
 6.3143597000e-03     1     6     9     1
-3.4146890000e-03     1     6     9     2
-1.2306129000e-03     1     6     9     3
 4.8853400000e-05     1     6     9     4
 1.2350000000e-07     1     6     9     5
-1.2966509000e-03     1     6     9     7
 5.1983980000e-04     1     6     9     8
 1.4316600000e-05     1     6     9     9
 2.0875213000e-03     1     7     2     1
-1.8590928000e-03     1     7     2     2
 4.9047409000e-03     1     7     2     3
 2.3926706000e-03     1     7     2     4
 5.5738600000e-05     1     7     2     5
 4.7948000000e-06     1     7     2     6
-6.5026560000e-04     1     7     2     8
 1.4599300000e-05     1     7     2     9
-7.6246817300e-02     1     7     3     1
 4.9401330600e-02     1     7     3     2
 4.0108727800e-02     1     7     3     3
 5.6398654000e-03     1     7     3     4
 1.2473610000e-04     1     7     3     5
 1.0988900000e-05     1     7     3     6
-1.3402802000e-03     1     7     3     8
 2.9196100000e-05     1     7     3     9
-1.8389193500e-02     1     7     4     1
 1.1225995900e-02     1     7     4     2
 9.8565344000e-03     1     7     4     3
-2.0453391100e-02     1     7     4     4
-5.0488000000e-06     1     7     4     5
-1.1377000000e-06     1     7     4     6
-2.2248824300e-02     1     7     4     8
-3.6455700000e-05     1     7     4     9
-4.1472810000e-04     1     7     5     1
 2.5213180000e-04     1     7     5     2
 2.1965910000e-04     1     7     5     3
-5.1281000000e-06     1     7     5     4
-2.0455675900e-02     1     7     5     5
 1.6072000000e-06     1     7     5     6
-6.9464800000e-05     1     7     5     8
 2.1822877100e-02     1     7     5     9
-3.6207500000e-05     1     7     6     1
 2.1909700000e-05     1     7     6     2
 1.9208900000e-05     1     7     6     3
-1.1514000000e-06     1     7     6     4
 1.6342000000e-06     1     7     6     5
-2.0465948400e-02     1     7     6     6
 1.4362430000e-04     1     7     6     8
 2.0999678000e-03     1     7     6     9
-3.0097779800e-01     1     7     7     1
 1.1918507630e-01     1     7     7     2
 6.5769018700e-02     1     7     7     3
-1.6611058600e-02     1     7     7     4
-3.9290170000e-04     1     7     7     5
-3.3548100000e-05     1     7     7     6
 5.6676900000e-04     1     7     7     8
-1.4244200000e-05     1     7     7     9
 2.8550723000e-03     1     7     8     1
-3.9647680000e-03     1     7     8     2
-2.6568237000e-03     1     7     8     3
-1.2744082300e-02     1     7     8     4
-1.2706100000e-05     1     7     8     5
 9.3999800000e-05     1     7     8     6
-1.2735979300e-02     1     7     8     8
-1.0566500000e-05     1     7     8     9
-5.3126000000e-05     1     7     9     1
 7.9903600000e-05     1     7     9     2
 5.4560000000e-05     1     7     9     3
-5.1147900000e-05     1     7     9     4
 1.3479330600e-02     1     7     9     5
 1.2966509000e-03     1     7     9     6
-1.0889300000e-05     1     7     9     8
-1.3448233400e-02     1     7     9     9
 4.0599013000e-03     1     8     2     1
-4.4853225000e-03     1     8     2     2
-1.2239814000e-03     1     8     2     3
 5.4265380000e-03     1     8     2     4
 2.0310400000e-05     1     8     2     5
-3.4223100000e-05     1     8     2     6
 6.5026560000e-04     1     8     2     7
 3.1670000000e-07     1     8     2     9
 2.7188928800e-02     1     8     3     1
-1.2165129300e-02     1     8     3     2
-1.4363049900e-02     1     8     3     3
 2.9799873000e-02     1     8     3     4
 4.3396200000e-05     1     8     3     5
-2.1466760000e-04     1     8     3     6
 1.3402802000e-03     1     8     3     7
-2.1553000000e-06     1     8     3     9
-6.4711385600e-02     1     8     4     1
 4.0975084800e-02     1     8     4     2
 4.2764955200e-02     1     8     4     3
 1.1111410000e-03     1     8     4     4
 3.8229300000e-05     1     8     4     5
 7.6246000000e-06     1     8     4     6
 2.2248824300e-02     1     8     4     7
 1.3332560000e-04     1     8     4     9
-1.5387040000e-04     1     8     5     1
 1.1657110000e-04     1     8     5     2
 8.0537400000e-05     1     8     5     3
 5.0133200000e-05     1     8     5     4
-1.3785030000e-04     1     8     5     5
 2.3000000000e-08     1     8     5     6
 6.9464800000e-05     1     8     5     7
-5.8842560000e-03     1     8     5     9
 4.4081640000e-04     1     8     6     1
-2.7126630000e-04     1     8     6     2
-2.9990170000e-04     1     8     6     3
 1.2198300000e-05     1     8     6     4
 9.9900000000e-08     1     8     6     5
-1.3904570000e-04     1     8     6     6
-1.4362430000e-04     1     8     6     7
-5.6573770000e-04     1     8     6     9
 2.8550723000e-03     1     8     7     1
-3.3145024000e-03     1     8     7     2
-1.3165435000e-03     1     8     7     3
 9.5047420000e-03     1     8     7     4
 5.6758700000e-05     1     8     7     5
-4.9624500000e-05     1     8     7     6
-5.6676900000e-04     1     8     7     7
 3.2280000000e-07     1     8     7     9
-3.1393979880e-01     1     8     8     1
 1.3099914450e-01     1     8     8     2
 7.5335157700e-02     1     8     8     3
-8.6032682000e-03     1     8     8     4
-3.1958130000e-04     1     8     8     5
-6.2600800000e-05     1     8     8     6
 1.2735979300e-02     1     8     8     7
 6.0390000000e-07     1     8     8     9
-2.0511490000e-04     1     8     9     1
 1.2777660000e-04     1     8     9     2
 3.0302900000e-05     1     8     9     3
 5.9624500000e-05     1     8     9     4
-5.4121147000e-03     1     8     9     5
-5.1983980000e-04     1     8     9     6
 1.0889300000e-05     1     8     9     7
 2.0417550000e-04     1     8     9     9
-8.4413000000e-05     1     9     2     1
 9.6626500000e-05     1     9     2     2
 2.5297800000e-05     1     9     2     3
 6.5546000000e-06     1     9     2     4
-5.1868281000e-03     1     9     2     5
-4.9905180000e-04     1     9     2     6
-1.4599300000e-05     1     9     2     7
-3.1670000000e-07     1     9     2     8
-5.6946630000e-04     1     9     3     1
 2.4958490000e-04     1     9     3     2
 2.9676600000e-04     1     9     3     3
 1.0594440000e-04     1     9     3     4
-3.1699411700e-02     1     9     3     5
-3.0504818000e-03     1     9     3     6
-2.9196100000e-05     1     9     3     7
 2.1553000000e-06     1     9     3     8
-1.6316430000e-04     1     9     4     1
 8.1263100000e-05     1     9     4     2
 1.3087740000e-04     1     9     4     3
-5.8427300000e-05     1     9     4     4
 6.1915200000e-04     1     9     4     5
 5.5984800000e-05     1     9     4     6
 3.6455700000e-05     1     9     4     7
-1.3332560000e-04     1     9     4     8
 6.5642405000e-02     1     9     5     1
-4.0681458300e-02     1     9     5     2
-4.4497464100e-02     1     9     5     3
 1.1270795000e-03     1     9     5     4
 4.2364600000e-05     1     9     5     5
 4.2057000000e-06     1     9     5     6
-2.1822877100e-02     1     9     5     7
 5.8842560000e-03     1     9     5     8
 6.3143597000e-03     1     9     6     1
-3.9137408000e-03     1     9     6     2
-4.2810947000e-03     1     9     6     3
 1.0483820000e-04     1     9     6     4
 4.3292000000e-06     1     9     6     5
 1.5976700000e-05     1     9     6     6
-2.0999678000e-03     1     9     6     7
 5.6573770000e-04     1     9     6     8
-5.3126000000e-05     1     9     7     1
 6.5304300000e-05     1     9     7     2
 2.5363900000e-05     1     9     7     3
-1.4692200000e-05     1     9     7     4
-8.3435465000e-03     1     9     7     5
-8.0331690000e-04     1     9     7     6
 1.4244200000e-05     1     9     7     7
-3.2280000000e-07     1     9     7     8
-2.0511490000e-04     1     9     8     1
 1.2745990000e-04     1     9     8     2
 3.2458200000e-05     1     9     8     3
-7.3701100000e-05     1     9     8     4
 4.7214130000e-04     1     9     8     5
 4.5897900000e-05     1     9     8     6
 1.0566500000e-05     1     9     8     7
-6.0390000000e-07     1     9     8     8
-3.2548068020e-01     1     9     9     1
 1.3812750410e-01     1     9     9     2
 7.7869818400e-02     1     9     9     3
-1.2082957600e-02     1     9     9     4
-1.8272380000e-04     1     9     9     5
-1.4316600000e-05     1     9     9     6
 1.3448233400e-02     1     9     9     7
-2.0417550000e-04     1     9     9     8
-8.3605262800e-02     2     1     1     2
-2.7146135000e-02     2     1     1     3
 1.5737937000e-03     2     1     1     4
 3.9629400000e-05     2     1     1     5
 3.2960000000e-06     2     1     1     6
 2.0875213000e-03     2     1     1     7
 4.0599013000e-03     2     1     1     8
-8.4413000000e-05     2     1     1     9
-1.5663897100e-02     2     1     3     2
-8.4380174900e-02     2     1     3     3
 2.9363197000e-03     2     1     3     4
 6.8792900000e-05     2     1     3     5
 5.7942000000e-06     2     1     3     6
-4.4496589700e-02     2     1     3     7
 1.0941147900e-02     2     1     3     8
-2.2428710000e-04     2     1     3     9
-7.5104439000e-03     2     1     4     2
 2.0956237000e-03     2     1     4     3
-1.1057493530e-01     2     1     4     4
 1.9966300000e-05     2     1     4     5
 1.7334000000e-06     2     1     4     6
-8.8333253000e-03     2     1     4     7
-3.5548546800e-02     2     1     4     8
-7.4708500000e-05     2     1     4     9
-1.7897350000e-04     2     1     5     2
 4.8408800000e-05     2     1     5     3
 1.9312200000e-05     2     1     5     4
-1.1168077290e-01     2     1     5     5
-1.2850000000e-07     2     1     5     6
-1.9639320000e-04     2     1     5     7
-9.6260700000e-05     2     1     5     8
 3.5494630200e-02     2     1     5     9
-1.5194800000e-05     2     1     6     2
 4.0623000000e-06     2     1     6     3
 1.6966000000e-06     2     1     6     4
-8.3500000000e-08     2     1     6     5
-1.1168172340e-01     2     1     6     6
-1.7114900000e-05     2     1     6     7
 2.3704320000e-04     2     1     6     8
 3.4146890000e-03     2     1     6     9
 1.8590928000e-03     2     1     7     2
-4.9401330600e-02     2     1     7     3
-1.1225995900e-02     2     1     7     4
-2.5213180000e-04     2     1     7     5
-2.1909700000e-05     2     1     7     6
-1.1918507630e-01     2     1     7     7
 3.9647680000e-03     2     1     7     8
-7.9903600000e-05     2     1     7     9
 4.4853225000e-03     2     1     8     2
 1.2165129300e-02     2     1     8     3
-4.0975084800e-02     2     1     8     4
-1.1657110000e-04     2     1     8     5
 2.7126630000e-04     2     1     8     6
 3.3145024000e-03     2     1     8     7
-1.3099914450e-01     2     1     8     8
-1.2777660000e-04     2     1     8     9
-9.6626500000e-05     2     1     9     2
-2.4958490000e-04     2     1     9     3
-8.1263100000e-05     2     1     9     4
 4.0681458300e-02     2     1     9     5
 3.9137408000e-03     2     1     9     6
-6.5304300000e-05     2     1     9     7
-1.2745990000e-04     2     1     9     8
-1.3812750410e-01     2     1     9     9
 8.3605262800e-02     2     2     1     1
 1.5663897100e-02     2     2     1     3
 7.5104439000e-03     2     2     1     4
 1.7897350000e-04     2     2     1     5
 1.5194800000e-05     2     2     1     6
-1.8590928000e-03     2     2     1     7
-4.4853225000e-03     2     2     1     8
 9.6626500000e-05     2     2     1     9
 1.5663897100e-02     2     2     3     1
 1.2573746560e-01     2     2     3     3
 3.7296874000e-03     2     2     3     4
 8.9545000000e-05     2     2     3     5
 7.5799000000e-06     2     2     3     6
 2.2938321300e-02     2     2     3     7
-1.3941001600e-02     2     2     3     8
 2.9703580000e-04     2     2     3     9
 7.5104439000e-03     2     2     4     1
 3.7296874000e-03     2     2     4     3
 1.4835972220e-01     2     2     4     4
 2.5852900000e-05     2     2     4     5
 2.1801000000e-06     2     2     4     6
 5.3663002000e-03     2     2     4     7
 2.0264740000e-02     2     2     4     8
 9.5713200000e-05     2     2     4     9
 1.7897350000e-04     2     2     5     1
 8.9545000000e-05     2     2     5     3
 2.5852900000e-05     2     2     5     4
 1.4748061510e-01     2     2     5     5
 7.9400000000e-08     2     2     5     6
 1.2105550000e-04     2     2     5     7
 9.0918000000e-06     2     2     5     8
-2.2420058500e-02     2     2     5     9
 1.5194800000e-05     2     2     6     1
 7.5799000000e-06     2     2     6     3
 2.1801000000e-06     2     2     6     4
 7.9400000000e-08     2     2     6     5
 1.4748044530e-01     2     2     6     6
 1.0738900000e-05     2     2     6     7
-1.5414650000e-04     2     2     6     8
-2.1562087000e-03     2     2     6     9
-1.8590928000e-03     2     2     7     1
 2.2938321300e-02     2     2     7     3
 5.3663002000e-03     2     2     7     4
 1.2105550000e-04     2     2     7     5
 1.0738900000e-05     2     2     7     6
 1.5967654960e-01     2     2     7     7
 1.6667064000e-03     2     2     7     8
-3.7326700000e-05     2     2     7     9
-4.4853225000e-03     2     2     8     1
-1.3941001600e-02     2     2     8     3
 2.0264740000e-02     2     2     8     4
 9.0918000000e-06     2     2     8     5
-1.5414650000e-04     2     2     8     6
 1.6667064000e-03     2     2     8     7
 1.6086475180e-01     2     2     8     8
 3.1946200000e-05     2     2     8     9
 9.6626500000e-05     2     2     9     1
 2.9703580000e-04     2     2     9     3
 9.5713200000e-05     2     2     9     4
-2.2420058500e-02     2     2     9     5
-2.1562087000e-03     2     2     9     6
-3.7326700000e-05     2     2     9     7
 3.1946200000e-05     2     2     9     8
 1.6308067020e-01     2     2     9     9
 2.7146135000e-02     2     3     1     1
-1.5663897100e-02     2     3     1     2
 8.4069600000e-04     2     3     1     4
 2.0384100000e-05     2     3     1     5
 1.7319000000e-06     2     3     1     6
 4.9047409000e-03     2     3     1     7
-1.2239814000e-03     2     3     1     8
 2.5297800000e-05     2     3     1     9