&FCI NORB=  9,NELEC=  2,MS2=0,
 ORBSYM=1,1,1,1,1,1,1,1,1
 ISYM=1,
&END
 1.4859516260e-01     1     1     2     2
-4.2685762100e-02     1     1     2     3
 2.2236600200e-02     1     1     2     4
-4.7437560000e-04     1     1     2     5
-3.0244500000e-04     1     1     2     6
-1.6912287600e-02     1     1     2     7
 5.5925000000e-06     1     1     2     8
-2.6424300000e-05     1     1     2     9
-4.2685762100e-02     1     1     3     2
 2.7415395670e-01     1     1     3     3
 3.6470535000e-03     1     1     3     4
-7.8975600000e-05     1     1     3     5
-4.9366200000e-05     1     1     3     6
-1.1627052000e-03     1     1     3     7
 1.1463070000e-04     1     1     3     8
 2.8688100000e-05     1     1     3     9
 2.2236600200e-02     1     1     4     2
 3.6470535000e-03     1     1     4     3
 2.8064718980e-01     1     1     4     4
 1.1989770000e-04     1     1     4     5
 7.2584500000e-05     1     1     4     6
 7.0759457700e-02     1     1     4     7
 1.4488180000e-03     1     1     4     8
-9.3768470000e-04     1     1     4     9
-4.7437560000e-04     1     1     5     2
-7.8975600000e-05     1     1     5     3
 1.1989770000e-04     1     1     5     4
 2.8684143170e-01     1     1     5     5
-1.9809000000e-06     1     1     5     6
-1.5954790000e-03     1     1     5     7
 6.5426263600e-02     1     1     5     8
-3.9701248000e-03     1     1     5     9
-3.0244500000e-04     1     1     6     2
-4.9366200000e-05     1     1     6     3
 7.2584500000e-05     1     1     6     4
-1.9809000000e-06     1     1     6     5
 2.8684684270e-01     1     1     6     6
-8.9384130000e-04     1     1     6     7
-3.9890117000e-03     1     1     6     8
-6.5429739100e-02     1     1     6     9
-1.6912287600e-02     1     1     7     2
-1.1627052000e-03     1     1     7     3
 7.0759457700e-02     1     1     7     4
-1.5954790000e-03     1     1     7     5
-8.9384130000e-04     1     1     7     6
 2.9985890420e-01     1     1     7     7
 2.1873200000e-05     1     1     7     8
-1.2839400000e-05     1     1     7     9
 5.5925000000e-06     1     1     8     2
 1.1463070000e-04     1     1     8     3
 1.4488180000e-03     1     1     8     4
 6.5426263600e-02     1     1     8     5
-3.9890117000e-03     1     1     8     6
 2.1873200000e-05     1     1     8     7
 3.0826416400e-01     1     1     8     8
-1.3040000000e-07     1     1     8     9
-2.6424300000e-05     1     1     9     2
 2.8688100000e-05     1     1     9     3
-9.3768470000e-04     1     1     9     4
-3.9701248000e-03     1     1     9     5
-6.5429739100e-02     1     1     9     6
-1.2839400000e-05     1     1     9     7
-1.3040000000e-07     1     1     9     8
 3.0825842460e-01     1     1     9     9
-1.4859516260e-01     1     2     2     1
 1.5321849800e-02     1     2     2     3
-3.2116580900e-02     1     2     2     4
 7.3139180000e-04     1     2     2     5
 4.5147950000e-04     1     2     2     6
 7.7134928000e-03     1     2     2     7
 1.1392000000e-06     1     2     2     8
 1.4404200000e-05     1     2     2     9
 4.2685762100e-02     1     2     3     1
-7.7885090800e-02     1     2     3     3
-8.8401342000e-03     1     2     3     4
 1.9156560000e-04     1     2     3     5
 1.1960380000e-04     1     2     3     6
 8.6845041000e-03     1     2     3     7
-7.2345300000e-05     1     2     3     8
-8.4451000000e-06     1     2     3     9
-2.2236600200e-02     1     2     4     1
-1.3348718100e-02     1     2     4     3
-8.2416959700e-02     1     2     4     4
-1.9579790000e-04     1     2     4     5
-1.2283960000e-04     1     2     4     6
-5.2259815700e-02     1     2     4     7
-1.0135460000e-03     1     2     4     8
 6.4527770000e-04     1     2     4     9
 4.7437560000e-04     1     2     5     1
 2.9734010000e-04     1     2     5     3
-2.0014450000e-04     1     2     5     4
-9.1315942400e-02     1     2     5     5
 2.8703000000e-06     1     2     5     6
 1.1974797000e-03     1     2     5     7
-4.6837368600e-02     1     2     5     8
 2.8422665000e-03     1     2     5     9
 3.0244500000e-04     1     2     6     1
 1.8427500000e-04     1     2     6     3
-1.2441070000e-04     1     2     6     4
 2.8812000000e-06     1     2     6     5
-9.1320343100e-02     1     2     6     6
 6.7643050000e-04     1     2     6     7
 2.8558041000e-03     1     2     6     8
 4.6843615200e-02     1     2     6     9
 1.6912287600e-02     1     2     7     1
 8.9702297000e-03     1     2     7     3
-3.7113937600e-02     1     2     7     4
 8.5082880000e-04     1     2     7     5
 4.8043140000e-04     1     2     7     6
-8.6043087800e-02     1     2     7     7
-3.9306600000e-05     1     2     7     8
 2.4948300000e-05     1     2     7     9
-5.5925000000e-06     1     2     8     1
-5.4876100000e-05     1     2     8     3
-7.2607100000e-04     1     2     8     4
-3.3711964500e-02     1     2     8     5
 2.0553320000e-03     1     2     8     6
-3.7869800000e-05     1     2     8     7
-9.5925524800e-02     1     2     8     8
 5.4470000000e-07     1     2     8     9
 2.6424300000e-05     1     2     9     1
-7.0244000000e-06     1     2     9     3
 4.6458270000e-04     1     2     9     4
 2.0456518000e-03     1     2     9     5
 3.3716234700e-02     1     2     9     6
 2.6422000000e-05     1     2     9     7
 4.8860000000e-07     1     2     9     8
-9.5919187000e-02     1     2     9     9
 4.2685762100e-02     1     3     2     1
-1.5321849800e-02     1     3     2     2
 4.5085839000e-03     1     3     2     4
-1.0577450000e-04     1     3     2     5
-6.4671200000e-05     1     3     2     6
-2.8572560000e-04     1     3     2     7
-1.7469200000e-05     1     3     2     8
-1.4207000000e-06     1     3     2     9
-2.7415395670e-01     1     3     3     1
 7.7885090800e-02     1     3     3     2
-8.6818020000e-04     1     3     3     4
 7.9610400000e-05     1     3     3     5
 3.1734900000e-05     1     3     3     6
 1.5888559500e-02     1     3     3     7
 7.6442900000e-05     1     3     3     8
 2.2898200000e-05     1     3     3     9
-3.6470535000e-03     1     3     4     1
 1.3348718100e-02     1     3     4     2
 5.2718339600e-02     1     3     4     4
 5.4570000000e-05     1     3     4     5
 3.3183000000e-05     1     3     4     6
 3.1257396300e-02     1     3     4     7
 7.2673370000e-04     1     3     4     8
-4.7822490000e-04     1     3     4     9
 7.8975600000e-05     1     3     5     1
-2.9734010000e-04     1     3     5     2
 5.0444900000e-05     1     3     5     4
 5.5387304300e-02     1     3     5     5
-7.9770000000e-07     1     3     5     6
-6.9588790000e-04     1     3     5     7
 3.3006910700e-02     1     3     5     8
-2.0028124000e-03     1     3     5     9
 4.9366200000e-05     1     3     6     1
-1.8427500000e-04     1     3     6     2
 3.1607300000e-05     1     3     6     4
-8.1400000000e-07     1     3     6     5
 5.5389081800e-02     1     3     6     6
-3.8458450000e-04     1     3     6     7
-2.0123191000e-03     1     3     6     8
-3.3007126300e-02     1     3     6     9
 1.1627052000e-03     1     3     7     1
-8.9702297000e-03     1     3     7     2
 1.2014832200e-02     1     3     7     4
-2.7888120000e-04     1     3     7     5
-1.5742780000e-04     1     3     7     6
 5.0138996600e-02     1     3     7     7
 3.2897000000e-06     1     3     7     8
-4.0455000000e-06     1     3     7     9
-1.1463070000e-04     1     3     8     1
 5.4876100000e-05     1     3     8     2
 2.2184280000e-04     1     3     8     4
 1.0220963500e-02     1     3     8     5
-6.2287300000e-04     1     3     8     6
 1.3091600000e-05     1     3     8     7
 5.0544913900e-02     1     3     8     8
-2.8670000000e-07     1     3     8     9
-2.8688100000e-05     1     3     9     1
 7.0244000000e-06     1     3     9     2
-1.4032360000e-04     1     3     9     4
-6.2006890000e-04     1     3     9     5
-1.0221853500e-02     1     3     9     6
-3.0517000000e-06     1     3     9     7
-3.6500000000e-08     1     3     9     8
 5.0542664800e-02     1     3     9     9
-2.2236600200e-02     1     4     2     1
 3.2116580900e-02     1     4     2     2
-4.5085839000e-03     1     4     2     3
 4.3466000000e-06     1     4     2     5
 1.5711000000e-06     1     4     2     6
-1.5145878100e-02     1     4     2     7
-2.8747500000e-04     1     4     2     8
 1.8069500000e-04     1     4     2     9
-3.6470535000e-03     1     4     3     1
 8.8401342000e-03     1     4     3     2
 8.6818020000e-04     1     4     3     3
 4.1251000000e-06     1     4     3     5
 1.5757000000e-06     1     4     3     6
 1.9242564100e-02     1     4     3     7
 5.0489090000e-04     1     4     3     8
-3.3790130000e-04     1     4     3     9
-2.8064718980e-01     1     4     4     1
 8.2416959700e-02     1     4     4     2
-5.2718339600e-02     1     4     4     3
 1.4689070000e-04     1     4     4     5
 7.2364200000e-05     1     4     4     6
-5.9751241000e-03     1     4     4     7
-5.6720000000e-04     1     4     4     8
 3.6420930000e-04     1     4     4     9
-1.1989770000e-04     1     4     5     1
 2.0014450000e-04     1     4     5     2
-5.0444900000e-05     1     4     5     3
 3.6683336000e-03     1     4     5     5
 4.3700000000e-08     1     4     5     6
 4.9134500000e-04     1     4     5     7
-1.4611255300e-02     1     4     5     8
 8.8331920000e-04     1     4     5     9
-7.2584500000e-05     1     4     6     1
 1.2441070000e-04     1     4     6     2
-3.1607300000e-05     1     4     6     3
 6.7400000000e-08     1     4     6     5
 3.6680390000e-03     1     4     6     6
 2.8880450000e-04     1     4     6     7
 8.9511760000e-04     1     4     6     8
 1.4622901100e-02     1     4     6     9
-7.0759457700e-02     1     4     7     1
 3.7113937600e-02     1     4     7     2
-1.2014832200e-02     1     4     7     3
 1.4905700000e-05     1     4     7     5
 1.7413000000e-06     1     4     7     6
 1.3250942700e-02     1     4     7     7
-4.8660200000e-05     1     4     7     8
 1.9657700000e-05     1     4     7     9
-1.4488180000e-03     1     4     8     1
 7.2607100000e-04     1     4     8     2
-2.2184280000e-04     1     4     8     3
-2.5305745000e-03     1     4     8     5
 1.5335170000e-04     1     4     8     6
 1.1306690000e-04     1     4     8     7
 9.7969245000e-03     1     4     8     8
 4.4450000000e-07     1     4     8     9
 9.3768470000e-04     1     4     9     1
-4.6458270000e-04     1     4     9     2
 1.4032360000e-04     1     4     9     3
 1.5397290000e-04     1     4     9     5
 2.5304858000e-03     1     4     9     6
-7.4372900000e-05     1     4     9     7
 5.9910000000e-07     1     4     9     8
 9.7993869000e-03     1     4     9     9
 4.7437560000e-04     1     5     2     1
-7.3139180000e-04     1     5     2     2
 1.0577450000e-04     1     5     2     3
-4.3466000000e-06     1     5     2     4
-1.0900000000e-08     1     5     2     6
 3.4665090000e-04     1     5     2     7
-1.3125404100e-02     1     5     2     8
 7.9661470000e-04     1     5     2     9
 7.8975600000e-05     1     5     3     1
-1.9156560000e-04     1     5     3     2
-7.9610400000e-05     1     5     3     3
-4.1251000000e-06     1     5     3     4
 1.6300000000e-08     1     5     3     6
-4.1700670000e-04     1     5     3     7
 2.2785947200e-02     1     5     3     8
-1.3827435000e-03     1     5     3     9
-1.1989770000e-04     1     5     4     1
 1.9579790000e-04     1     5     4     2
-5.4570000000e-05     1     5     4     3
-1.4689070000e-04     1     5     4     4
-2.3700000000e-08     1     5     4     6
 4.7643930000e-04     1     5     4     7
-1.2080680800e-02     1     5     4     8
 7.2934630000e-04     1     5     4     9
-2.8684143170e-01     1     5     5     1
 9.1315942400e-02     1     5     5     2
-5.5387304300e-02     1     5     5     3
-3.6683336000e-03     1     5     5     4
 7.3100100000e-05     1     5     5     6
 1.4741323700e-02     1     5     5     7
 5.0557660000e-04     1     5     5     8
-1.6534600000e-05     1     5     5     9
 1.9809000000e-06     1     5     6     1
-2.8812000000e-06     1     5     6     2
 8.1400000000e-07     1     5     6     3
-6.7400000000e-08     1     5     6     4
-1.4985100000e-04     1     5     6     6
-6.1102000000e-06     1     5     6     7
 1.4551130000e-04     1     5     6     8
-3.1302620000e-04     1     5     6     9
 1.5954790000e-03     1     5     7     1
-8.5082880000e-04     1     5     7     2
 2.7888120000e-04     1     5     7     3
-1.4905700000e-05     1     5     7     4
 1.6340000000e-07     1     5     7     6
-3.8868260000e-04     1     5     7     7
-4.9289500000e-04     1     5     7     8
 3.0161700000e-05     1     5     7     9
-6.5426263600e-02     1     5     8     1
 3.3711964500e-02     1     5     8     2
-1.0220963500e-02     1     5     8     3
 2.5305745000e-03     1     5     8     4
-3.5420500000e-05     1     5     8     6
 6.3819750000e-03     1     5     8     7
-2.6637720000e-04     1     5     8     8
-6.1297000000e-06     1     5     8     9
 3.9701248000e-03     1     5     9     1
-2.0456518000e-03     1     5     9     2
 6.2006890000e-04     1     5     9     3
-1.5397290000e-04     1     5     9     4
-4.5768800000e-05     1     5     9     6
-3.8714820000e-04     1     5     9     7
-4.6724000000e-06     1     5     9     8
-2.8554230000e-04     1     5     9     9
 3.0244500000e-04     1     6     2     1
-4.5147950000e-04     1     6     2     2
 6.4671200000e-05     1     6     2     3
-1.5711000000e-06     1     6     2     4
 1.0900000000e-08     1     6     2     5
 1.9599910000e-04     1     6     2     7
 8.0047210000e-04     1     6     2     8
 1.3127380500e-02     1     6     2     9
 4.9366200000e-05     1     6     3     1
-1.1960380000e-04     1     6     3     2
-3.1734900000e-05     1     6     3     3
-1.5757000000e-06     1     6     3     4
-1.6300000000e-08     1     6     3     5
-2.2715670000e-04     1     6     3     7
-1.3894461000e-03     1     6     3     8
-2.2785272800e-02     1     6     3     9
-7.2584500000e-05     1     6     4     1
 1.2283960000e-04     1     6     4     2
-3.3183000000e-05     1     6     4     3
-7.2364200000e-05     1     6     4     4
 2.3700000000e-08     1     6     4     5
 2.8706320000e-04     1     6     4     7
 7.4176590000e-04     1     6     4     8
 1.2092415300e-02     1     6     4     9
 1.9809000000e-06     1     6     5     1
-2.8703000000e-06     1     6     5     2
 7.9770000000e-07     1     6     5     3
-4.3700000000e-08     1     6     5     4
-7.3100100000e-05     1     6     5     5
-6.2736000000e-06     1     6     5     7
 1.8093180000e-04     1     6     5     8
-2.6725740000e-04     1     6     5     9
-2.8684684270e-01     1     6     6     1
 9.1320343100e-02     1     6     6     2
-5.5389081800e-02     1     6     6     3
-3.6680390000e-03     1     6     6     4
 1.4985100000e-04     1     6     6     5
 1.4747849600e-02     1     6     6     7
-3.4936900000e-05     1     6     6     8
-3.1851220000e-04     1     6     6     9
 8.9384130000e-04     1     6     7     1
-4.8043140000e-04     1     6     7     2
 1.5742780000e-04     1     6     7     3
-1.7413000000e-06     1     6     7     4
-1.6340000000e-07     1     6     7     5
-2.1358240000e-04     1     6     7     7
 3.0327200000e-05     1     6     7     8
 4.9380340000e-04     1     6     7     9
 3.9890117000e-03     1     6     8     1
-2.0553320000e-03     1     6     8     2
 6.2287300000e-04     1     6     8     3
-1.5335170000e-04     1     6     8     4
 3.5420500000e-05     1     6     8     5
-3.8912330000e-04     1     6     8     7
-1.5790560000e-04     1     6     8     8
-4.2020000000e-07     1     6     8     9
 6.5429739100e-02     1     6     9     1
-3.3716234700e-02     1     6     9     2
 1.0221853500e-02     1     6     9     3
-2.5304858000e-03     1     6     9     4
 4.5768800000e-05     1     6     9     5
-6.3839780000e-03     1     6     9     7
 1.0232900000e-05     1     6     9     8
-1.3376400000e-04     1     6     9     9
 1.6912287600e-02     1     7     2     1
-7.7134928000e-03     1     7     2     2
 2.8572560000e-04     1     7     2     3
 1.5145878100e-02     1     7     2     4
-3.4665090000e-04     1     7     2     5
-1.9599910000e-04     1     7     2     6
-1.4368000000e-06     1     7     2     8
-1.4737000000e-06     1     7     2     9
 1.1627052000e-03     1     7     3     1
-8.6845041000e-03     1     7     3     2
-1.5888559500e-02     1     7     3     3
-1.9242564100e-02     1     7     3     4
 4.1700670000e-04     1     7     3     5
 2.2715670000e-04     1     7     3     6
-9.8019000000e-06     1     7     3     8
-9.9380000000e-07     1     7     3     9
-7.0759457700e-02     1     7     4     1
 5.2259815700e-02     1     7     4     2
-3.1257396300e-02     1     7     4     3
 5.9751241000e-03     1     7     4     4
-4.7643930000e-04     1     7     4     5
-2.8706320000e-04     1     7     4     6
-1.6172710000e-04     1     7     4     8
 9.4030600000e-05     1     7     4     9
 1.5954790000e-03     1     7     5     1
-1.1974797000e-03     1     7     5     2
 6.9588790000e-04     1     7     5     3
-4.9134500000e-04     1     7     5     4
-1.4741323700e-02     1     7     5     5
 6.2736000000e-06     1     7     5     6
-6.8748700000e-03     1     7     5     8
 4.1730990000e-04     1     7     5     9
 8.9384130000e-04     1     7     6     1
-6.7643050000e-04     1     7     6     2
 3.8458450000e-04     1     7     6     3
-2.8880450000e-04     1     7     6     4
 6.1102000000e-06     1     7     6     5
-1.4747849600e-02     1     7     6     6
 4.1945050000e-04     1     7     6     8
 6.8777814000e-03     1     7     6     9
-2.9985890420e-01     1     7     7     1
 8.6043087800e-02     1     7     7     2
-5.0138996600e-02     1     7     7     3
-1.3250942700e-02     1     7     7     4
 3.8868260000e-04     1     7     7     5
 2.1358240000e-04     1     7     7     6
-8.6471000000e-06     1     7     7     8
 1.0902200000e-05     1     7     7     9
-2.1873200000e-05     1     7     8     1
 3.7869800000e-05     1     7     8     2
-1.3091600000e-05     1     7     8     3
-1.1306690000e-04     1     7     8     4
-6.3819750000e-03     1     7     8     5
 3.8912330000e-04     1     7     8     6
-1.0054777000e-02     1     7     8     8
 8.0600000000e-08     1     7     8     9
 1.2839400000e-05     1     7     9     1
-2.6422000000e-05     1     7     9     2
 3.0517000000e-06     1     7     9     3
 7.4372900000e-05     1     7     9     4
 3.8714820000e-04     1     7     9     5
 6.3839780000e-03     1     7     9     6
 1.5800000000e-08     1     7     9     8
-1.0054641100e-02     1     7     9     9
-5.5925000000e-06     1     8     2     1
-1.1392000000e-06     1     8     2     2
 1.7469200000e-05     1     8     2     3
 2.8747500000e-04     1     8     2     4
 1.3125404100e-02     1     8     2     5
-8.0047210000e-04     1     8     2     6
 1.4368000000e-06     1     8     2     7
 5.6100000000e-08     1     8     2     9
-1.1463070000e-04     1     8     3     1
 7.2345300000e-05     1     8     3     2
-7.6442900000e-05     1     8     3     3
-5.0489090000e-04     1     8     3     4
-2.2785947200e-02     1     8     3     5
 1.3894461000e-03     1     8     3     6
 9.8019000000e-06     1     8     3     7
-2.5020000000e-07     1     8     3     9
-1.4488180000e-03     1     8     4     1
 1.0135460000e-03     1     8     4     2
-7.2673370000e-04     1     8     4     3
 5.6720000000e-04     1     8     4     4
 1.2080680800e-02     1     8     4     5
-7.4176590000e-04     1     8     4     6
 1.6172710000e-04     1     8     4     7
-1.5460000000e-07     1     8     4     9
-6.5426263600e-02     1     8     5     1
 4.6837368600e-02     1     8     5     2
-3.3006910700e-02     1     8     5     3
 1.4611255300e-02     1     8     5     4
-5.0557660000e-04     1     8     5     5
-1.8093180000e-04     1     8     5     6
 6.8748700000e-03     1     8     5     7
-1.4573000000e-06     1     8     5     9
 3.9890117000e-03     1     8     6     1
-2.8558041000e-03     1     8     6     2
 2.0123191000e-03     1     8     6     3
-8.9511760000e-04     1     8     6     4
-1.4551130000e-04     1     8     6     5
 3.4936900000e-05     1     8     6     6
-4.1945050000e-04     1     8     6     7
-1.0653100000e-05     1     8     6     9
-2.1873200000e-05     1     8     7     1
 3.9306600000e-05     1     8     7     2
-3.2897000000e-06     1     8     7     3
 4.8660200000e-05     1     8     7     4
 4.9289500000e-04     1     8     7     5
-3.0327200000e-05     1     8     7     6
 8.6471000000e-06     1     8     7     7
 6.4800000000e-08     1     8     7     9
-3.0826416400e-01     1     8     8     1
 9.5925524800e-02     1     8     8     2
-5.0544913900e-02     1     8     8     3
-9.7969245000e-03     1     8     8     4
 2.6637720000e-04     1     8     8     5
 1.5790560000e-04     1     8     8     6
 1.0054777000e-02     1     8     8     7
 1.1420000000e-05     1     8     8     9
 1.3040000000e-07     1     8     9     1
-4.8860000000e-07     1     8     9     2
 3.6500000000e-08     1     8     9     3
-5.9910000000e-07     1     8     9     4
 4.6724000000e-06     1     8     9     5
-1.0232900000e-05     1     8     9     6
-1.5800000000e-08     1     8     9     7
 8.6360000000e-06     1     8     9     9
 2.6424300000e-05     1     9     2     1
-1.4404200000e-05     1     9     2     2
 1.4207000000e-06     1     9     2     3
-1.8069500000e-04     1     9     2     4
-7.9661470000e-04     1     9     2     5
-1.3127380500e-02     1     9     2     6
 1.4737000000e-06     1     9     2     7
-5.6100000000e-08     1     9     2     8
-2.8688100000e-05     1     9     3     1
 8.4451000000e-06     1     9     3     2
-2.2898200000e-05     1     9     3     3
 3.3790130000e-04     1     9     3     4
 1.3827435000e-03     1     9     3     5
 2.2785272800e-02     1     9     3     6
 9.9380000000e-07     1     9     3     7
 2.5020000000e-07     1     9     3     8
 9.3768470000e-04     1     9     4     1
-6.4527770000e-04     1     9     4     2
 4.7822490000e-04     1     9     4     3
-3.6420930000e-04     1     9     4     4
-7.2934630000e-04     1     9     4     5
-1.2092415300e-02     1     9     4     6
-9.4030600000e-05     1     9     4     7
 1.5460000000e-07     1     9     4     8
 3.9701248000e-03     1     9     5     1
-2.8422665000e-03     1     9     5     2
 2.0028124000e-03     1     9     5     3
-8.8331920000e-04     1     9     5     4
 1.6534600000e-05     1     9     5     5
 2.6725740000e-04     1     9     5     6
-4.1730990000e-04     1     9     5     7
 1.4573000000e-06     1     9     5     8
 6.5429739100e-02     1     9     6     1
-4.6843615200e-02     1     9     6     2
 3.3007126300e-02     1     9     6     3
-1.4622901100e-02     1     9     6     4
 3.1302620000e-04     1     9     6     5
 3.1851220000e-04     1     9     6     6
-6.8777814000e-03     1     9     6     7
 1.0653100000e-05     1     9     6     8
 1.2839400000e-05     1     9     7     1
-2.4948300000e-05     1     9     7     2
 4.0455000000e-06     1     9     7     3
-1.9657700000e-05     1     9     7     4
-3.0161700000e-05     1     9     7     5
-4.9380340000e-04     1     9     7     6
-1.0902200000e-05     1     9     7     7
-6.4800000000e-08     1     9     7     8
 1.3040000000e-07     1     9     8     1
-5.4470000000e-07     1     9     8     2
 2.8670000000e-07     1     9     8     3
-4.4450000000e-07     1     9     8     4
 6.1297000000e-06     1     9     8     5
 4.2020000000e-07     1     9     8     6
-8.0600000000e-08     1     9     8     7
-1.1420000000e-05     1     9     8     8
-3.0825842460e-01     1     9     9     1
 9.5919187000e-02     1     9     9     2
-5.0542664800e-02     1     9     9     3
-9.7993869000e-03     1     9     9     4
 2.8554230000e-04     1     9     9     5
 1.3376400000e-04     1     9     9     6
 1.0054641100e-02     1     9     9     7
-8.6360000000e-06     1     9     9     8
-1.4859516260e-01     2     1     1     2
 4.2685762100e-02     2     1     1     3
-2.2236600200e-02     2     1     1     4
 4.7437560000e-04     2     1     1     5
 3.0244500000e-04     2     1     1     6
 1.6912287600e-02     2     1     1     7
-5.5925000000e-06     2     1     1     8
 2.6424300000e-05     2     1     1     9
 1.5321849800e-02     2     1     3     2
-7.7885090800e-02     2     1     3     3
-1.3348718100e-02     2     1     3     4
 2.9734010000e-04     2     1     3     5
 1.8427500000e-04     2     1     3     6
 8.9702297000e-03     2     1     3     7
-5.4876100000e-05     2     1     3     8
-7.0244000000e-06     2     1     3     9
-3.2116580900e-02     2     1     4     2
-8.8401342000e-03     2     1     4     3
-8.2416959700e-02     2     1     4     4
-2.0014450000e-04     2     1     4     5
-1.2441070000e-04     2     1     4     6
-3.7113937600e-02     2     1     4     7
-7.2607100000e-04     2     1     4     8
 4.6458270000e-04     2     1     4     9
 7.3139180000e-04     2     1     5     2
 1.9156560000e-04     2     1     5     3
-1.9579790000e-04     2     1     5     4
-9.1315942400e-02     2     1     5     5
 2.8812000000e-06     2     1     5     6
 8.5082880000e-04     2     1     5     7
-3.3711964500e-02     2     1     5     8
 2.0456518000e-03     2     1     5     9
 4.5147950000e-04     2     1     6     2
 1.1960380000e-04     2     1     6     3
-1.2283960000e-04     2     1     6     4
 2.8703000000e-06     2     1     6     5
-9.1320343100e-02     2     1     6     6
 4.8043140000e-04     2     1     6     7
 2.0553320000e-03     2     1     6     8
 3.3716234700e-02     2     1     6     9
 7.7134928000e-03     2     1     7     2
 8.6845041000e-03     2     1     7     3
-5.2259815700e-02     2     1     7     4
 1.1974797000e-03     2     1     7     5
 6.7643050000e-04     2     1     7     6
-8.6043087800e-02     2     1     7     7
-3.7869800000e-05     2     1     7     8
 2.6422000000e-05     2     1     7     9
 1.1392000000e-06     2     1     8     2
-7.2345300000e-05     2     1     8     3
-1.0135460000e-03     2     1     8     4
-4.6837368600e-02     2     1     8     5
 2.8558041000e-03     2     1     8     6
-3.9306600000e-05     2     1     8     7
-9.5925524800e-02     2     1     8     8
 4.8860000000e-07     2     1     8     9
 1.4404200000e-05     2     1     9     2
-8.4451000000e-06     2     1     9     3
 6.4527770000e-04     2     1     9     4
 2.8422665000e-03     2     1     9     5
 4.6843615200e-02     2     1     9     6
 2.4948300000e-05     2     1     9     7
 5.4470000000e-07     2     1     9     8
-9.5919187000e-02     2     1     9     9
 1.4859516260e-01     2     2     1     1
-1.5321849800e-02     2     2     1     3
 3.2116580900e-02     2     2     1     4
-7.3139180000e-04     2     2     1     5
-4.5147950000e-04     2     2     1     6
-7.7134928000e-03     2     2     1     7
-1.1392000000e-06     2     2     1     8
-1.4404200000e-05     2     2     1     9
-1.5321849800e-02     2     2     3     1
 1.7219512350e-01     2     2     3     3
 7.3883563000e-03     2     2     3     4
-1.3943990000e-04     2     2     3     5
-9.4915500000e-05     2     2     3     6
 4.3316184000e-03     2     2     3     7
 5.0024300000e-05     2     2     3     8
 1.9274200000e-05     2     2     3     9
 3.2116580900e-02     2     2     4     1
 7.3883563000e-03     2     2     4     3
 2.0709859020e-01     2     2     4     4
-3.0537400000e-05     2     2     4     5
-1.7084400000e-05     2     2     4     6
 2.4477543000e-02     2     2     4     7
 5.6553680000e-04     2     2     4     8
-3.7377470000e-04     2     2     4     9
-7.3139180000e-04     2     2     5     1
-1.3943990000e-04     2     2     5     3
-3.0537400000e-05     2     2     5     4
 2.0743733310e-01     2     2     5     5
 3.8280000000e-07     2     2     5     6
-5.3233520000e-04     2     2     5     7
 2.4537686800e-02     2     2     5     8
-1.4887600000e-03     2     2     5     9
-4.5147950000e-04     2     2     6     1
-9.4915500000e-05     2     2     6     3
-1.7084400000e-05     2     2     6     4
 3.8280000000e-07     2     2     6     5
 2.0743859970e-01     2     2     6     6
-2.9342870000e-04     2     2     6     7
-1.4958820000e-03     2     2     6     8
-2.4535342700e-02     2     2     6     9
-7.7134928000e-03     2     2     7     1
 4.3316184000e-03     2     2     7     3
 2.4477543000e-02     2     2     7     4
-5.3233520000e-04     2     2     7     5
-2.9342870000e-04     2     2     7     6
 2.1184237880e-01     2     2     7     7
-1.3287400000e-05     2     2     7     8
 1.0995100000e-05     2     2     7     9
-1.1392000000e-06     2     2     8     1
 5.0024300000e-05     2     2     8     3
 5.6553680000e-04     2     2     8     4
 2.4537686800e-02     2     2     8     5
-1.4958820000e-03     2     2     8     6
-1.3287400000e-05     2     2     8     7
 2.1111377460e-01     2     2     8     8
 3.1740000000e-07     2     2     8     9
-1.4404200000e-05     2     2     9     1
 1.9274200000e-05     2     2     9     3
-3.7377470000e-04     2     2     9     4
-1.4887600000e-03     2     2     9     5
-2.4535342700e-02     2     2     9     6
 1.0995100000e-05     2     2     9     7
 3.1740000000e-07     2     2     9     8
 2.1111472790e-01     2     2     9     9
-4.2685762100e-02     2     3     1     1
 1.5321849800e-02     2     3     1     2
-4.5085839000e-03     2     3     1     4
 1.0577450000e-04     2     3     1     5
 6.4671200000e-05     2     3     1     6
 2.8572560000e-04     2     3     1     7
 1.7469200000e-05     2     3     1     8
 1.4207000000e-06     2     3     1     9