argument  1 = /home/bylaska/Projects/Work/SNWC/H1Li1-3x3a-1covo-1.3/H1Li1.nw



============================== echo of input deck ==============================
permanent_dir /home/bylaska/Projects/Work/SNWC/H1Li1-3x3a-1covo-1.3
scratch_dir   /home/bylaska/Projects/Work/SNWC/H1Li1-3x3a-1covo-1.3

#########################  START NWCHEM INPUT DECK - NWJOB 679864 ########################
#
# queue_nwchem_JobId: 61c94da5ea88854f1bdd7095
# queue_nwchem_restart_count: 0
#
#nwchem_input  H1Li1.nw
#nwchem_output H1Li1.out00
#nwchem_done   H1Li1.done
#
#mformula_off
#
#transfer_files *.nw *.xyz *.ion_motion *.emotion *.fei *.cif *.hist *.gr *.dat *.meta_gaussians *.cube *.neb_epath *.neb_final_epath
#bad_files md_xs
#
#curdir we31869.emsl.pnl.gov:/media/seagate2/Projects/Duo/COVOs/LiH/3x3_aperiodic_1covo/R-1.3
#
#permdir H1Li1-3x3a-1covo-1.3
#deletescratch no
#queuesave no
#
#machine aerosol8
#cputime 22:05:00
#ncpus 32
#queue regular
#
title "swnc: e theory=pspw4 xc=pbe formula=LiH charge=0 mult=1"
#machinejob:expert

echo

start pspw_hf_LiH

memory heap 1200 mb stack 1200 mb global 10 mb

charge 0

geometry
Li    0.00000    0.00000   -0.65000
H     0.00000    0.00000    0.65000
end

nwpw
  ### pseudopotential block begin ###
  ### pseudopotential block end   ###
  simulation_cell
     SC 28.345889835
     boundary_conditions aperiodic
  end

  cutoff 50.0
  mult 1
  xc hf
  lmbfgs
  tolerances 1.0e-9 1.0e-9

  virtual 1
end
set nwpw:cif_filename LiH

#set nwpw:CI_maxit_orb 15
#set nwpw:CI_maxit_linesearch 15
set pspw:HFX_screening_radius 14.0


set nwpw:2qintegrals .true.
set nwpw:3x3_virtual .true.

task pspw energy

### Generating HOMO and LUMO Gaussian cube files ###
nwpw
   dplot
      orbital 1 homo-restricted.cube
      density total density.cube
   end
end
task pspw pspw_dplot

nwpw
   dplot
      vectors  pspw_hf_LiH.emovecs
      orbital 1 lumo1-restricted.cube
   end
end
task pspw pspw_dplot

# queue_name: nwchem :queue_name
# label:nwchem-818.nw NWChem Job #818 curdir=we31869.emsl.pnl.gov:/media/seagate2/Projects/Duo/COVOs/LiH/3x3_aperiodic_1covo/R-1.3 QWAIT::679863::QWAIT :label

#########################  END   NWCHEM INPUT DECK - NWJOB 679864 ########################
================================================================================


                                         
                                         


             Northwest Computational Chemistry Package (NWChem) 7.0.1
             --------------------------------------------------------


                    Environmental Molecular Sciences Laboratory
                       Pacific Northwest National Laboratory
                                Richland, WA 99352

                              Copyright (c) 1994-2020
                       Pacific Northwest National Laboratory
                            Battelle Memorial Institute

             NWChem is an open-source computational chemistry package
                        distributed under the terms of the
                      Educational Community License (ECL) 2.0
             A copy of the license is included with this distribution
                              in the LICENSE.TXT file

                                  ACKNOWLEDGMENT
                                  --------------

            This software and its documentation were developed at the
            EMSL at Pacific Northwest National Laboratory, a multiprogram
            national laboratory, operated for the U.S. Department of Energy
            by Battelle under Contract Number DE-AC05-76RL01830. Support
            for this work was provided by the Department of Energy Office
            of Biological and Environmental Research, Office of Basic
            Energy Sciences, and the Office of Advanced Scientific Computing.


           Job information
           ---------------

    hostname        = arrow10
    program         = /home/bylaska/bin/nwchem
    date            = Mon Dec 27 03:35:04 2021

    compiled        = Tue_Dec_21_17:52:19_2021
    source          = /home/bylaska/nwchem-releases/nwchem
    nwchem branch   = 7.0.0
    nwchem revision = nwchem_on_git-3098-g62825c7
    ga revision     = 5.8.0
    use scalapack   = F
    input           = /home/bylaska/Projects/Work/SNWC/H1Li1-3x3a-1covo-1.3/H1Li1.nw
    prefix          = pspw_hf_LiH.
    data base       = /home/bylaska/Projects/Work/SNWC/H1Li1-3x3a-1covo-1.3/pspw_hf_LiH.db
    status          = startup
    nproc           =       32
    time left       =     -1s



           Memory information
           ------------------

    heap     =  157286398 doubles =   1200.0 Mbytes
    stack    =  157286395 doubles =   1200.0 Mbytes
    global   =    1310720 doubles =     10.0 Mbytes (distinct from heap & stack)
    total    =  315883513 doubles =   2410.0 Mbytes
    verify   = yes
    hardfail = no 


           Directory information
           ---------------------

  0 permanent = /home/bylaska/Projects/Work/SNWC/H1Li1-3x3a-1covo-1.3
  0 scratch   = /home/bylaska/Projects/Work/SNWC/H1Li1-3x3a-1covo-1.3




                                NWChem Input Module
                                -------------------


              swnc: e theory=pspw4 xc=pbe formula=LiH charge=0 mult=1
              -------------------------------------------------------

 Scaling coordinates for geometry "geometry" by  1.889725989
 (inverse scale =  0.529177249)

 ORDER OF PRIMARY AXIS IS BEING SET TO 4
 C4V symmetry detected

          ------
          auto-z
          ------
  no constraints, skipping    0.0000000000000000     
  no constraints, skipping    0.0000000000000000     


                             Geometry "geometry" -> ""
                             -------------------------

 Output coordinates in angstroms (scale by  1.889725989 to convert to a.u.)

  No.       Tag          Charge          X              Y              Z
 ---- ---------------- ---------- -------------- -------------- --------------
    1 Li                   3.0000     0.00000000     0.00000000    -0.32500000
    2 H                    1.0000     0.00000000     0.00000000     0.97500000

      Atomic Mass 
      ----------- 

      Li                 7.016000
      H                  1.007825


 Effective nuclear repulsion energy (a.u.)       1.2211782669

            Nuclear Dipole moment (a.u.) 
            ----------------------------
        X                 Y               Z
 ---------------- ---------------- ----------------
     0.0000000000     0.0000000000     0.0000000000

      Symmetry information
      --------------------

 Group name             C4v       
 Group number             18
 Group order               8
 No. of unique centers     2

      Symmetry unique atoms

     1    2



                                Z-matrix (autoz)
                                -------- 

 Units are Angstrom for bonds and degrees for angles

      Type          Name      I     J     K     L     M      Value
      ----------- --------  ----- ----- ----- ----- ----- ----------
    1 Stretch                  1     2                       1.30000


            XYZ format geometry
            -------------------
     2
 geometry
 Li                    0.00000000     0.00000000    -0.32500000
 H                     0.00000000     0.00000000     0.97500000

 ==============================================================================
                                internuclear distances
 ------------------------------------------------------------------------------
       center one      |      center two      | atomic units |  angstroms
 ------------------------------------------------------------------------------
    2 H                |   1 Li               |     2.45664  |     1.30000
 ------------------------------------------------------------------------------
                         number of included internuclear distances:          1
 ==============================================================================



          ****************************************************
          *                                                  *
          *               NWPW PSPW Calculation              *
          *                                                  *
          * [ (Grassmann/Stiefel manifold implementation)  ] *
          *                                                  *
          *      [ NorthWest Chemistry implementation ]      *
          *                                                  *
          *            version #5.10   06/12/02              *
          *                                                  *
          *    This code was developed by Eric J. Bylaska,   *
          *    and was based upon algorithms and code        *
          *    developed by the group of Prof. John H. Weare *
          *                                                  *
          ****************************************************
     >>>  JOB STARTED       AT Mon Dec 27 03:35:06 2021  <<<
          ================ input data ========================

 input psi filename:/home/bylaska/Projects/Work/SNWC/H1Li1-3x3a-1covo-1.3/pspw_hf_LiH.movecs

 number of processors used:        32
 processor grid           :  32 x   1
 parallel mapping         :2d-hilbert
 parallel mapping         :  balanced
 number of threads        :         1
 parallel io              :       off

 options:
      boundary conditions  = aperiodic   (version4)
      electron spin        = restricted
      exchange-correlation = Hartree-Fock
      - HFX relaxed
      - HFX restricted orbitals :    1
      - HFX free-space coulomb solver


 elements involved in the cluster:
      1: Li  valence charge:  1.0000  lmax=  1
             comment    : Hamann pseudopotential
             pseudpotential type            :   0
             highest angular component      :   1
             local potential used           :   1
             number of non-local projections:   1
             aperiodic cutoff radius        :  1.000
             semicore corrections included  :  1.000 (radius)  0.769 (charge)
             cutoff =   1.869   1.551

      2: H   valence charge:  1.0000  lmax=  1
             comment    : Parameterized (Chem.Phys.Lett., vol 322, page 447) Hamman psp
             pseudpotential type            :   0
             highest angular component      :   1
             local potential used           :   1
             number of non-local projections:   1
             aperiodic cutoff radius        :  1.000
             cutoff =   0.800   0.800


 total charge:   0.000

 atomic composition:
     Li  :    1     H   :    1

 number of electrons: spin up=     1 (   1 per task)  down=     1 (   1 per task) (Fourier space)
 number of orbitals : spin up=     1 (   1 per task)  down=     1 (   1 per task) (Fourier space)

 supercell:
      cell_name:  cell_default                                      
      lattice:    a1=<  28.346   0.000   0.000 >
                  a2=<   0.000  28.346   0.000 >
                  a3=<   0.000   0.000  28.346 >
      reciprocal: b1=<   0.222   0.000   0.000 >
                  b2=<   0.000   0.222   0.000 >
                  b3=<   0.000   0.000   0.222 >
      lattice:    a=      28.346 b=     28.346 c=      28.346
                  alpha=  90.000 beta=  90.000 gamma=  90.000
                  omega=     22775.6

      density cutoff=100.000  fft=140x140x140(   544264 waves    17008 per task)
      wavefnc cutoff= 50.000  fft=140x140x140(   192294 waves     6009 per task)

 technical parameters:
      time step=      5.80     fictitious mass=  400000.0
      tolerance=0.100E-08 (energy)   0.100E-08 (density)
      maximum iterations =      1000 (   10 inner    100 outer )





== Energy Calculation ==


          ============ Grassmann lmbfgs iteration ============
     >>>  ITERATION STARTED AT Mon Dec 27 03:39:01 2021  <<<
    iter.           Energy         DeltaE       DeltaRho 
    ------------------------------------------------------
      10   -0.7262865739E+00   -0.27879E-10    0.24107E-13
  *** tolerance ok. iteration terminated
     >>>  ITERATION ENDED   AT Mon Dec 27 03:39:04 2021  <<<


==  Summary Of Results  ==

 number of electrons: spin up=    1.00000  down=    1.00000 (real space)

 total     energy    :  -0.7262865739E+00 (   -0.36314E+00/ion)
 total orbital energy:  -0.6211667550E+00 (   -0.62117E+00/electron)
 hartree   energy    :   0.1024358482E+01 (    0.10244E+01/electron)
 exc-corr  energy    :   0.0000000000E+00 (    0.00000E+00/electron)
 HF exchange energy  :  -0.5121792412E+00 (   -0.51218E+00/electron)
 ion-ion   energy    :   0.4070594223E+00 (    0.20353E+00/ion)

 kinetic (planewave) :   0.7037391025E+00 (    0.70374E+00/electron)
 V_local (planewave) :  -0.2271235990E+01 (   -0.22712E+01/electron)
 V_nl    (planewave) :  -0.7802834959E-01 (   -0.78028E-01/electron)
 V_Coul  (planewave) :   0.2048716965E+01 (    0.20487E+01/electron)
 V_xc.   (planewave) :   0.0000000000E+00 (    0.00000E+00/electron)
 K.S. HFX energy     :  -0.1024358482E+01 (   -0.10244E+01/electron)
 Virial Coefficient  :  -0.4270721550E+00

 orbital energies:
    -0.3105834E+00 (  -8.451eV)


== Virtual Orbital Calculation ==


 input epsi filename:/home/bylaska/Projects/Work/SNWC/H1Li1-3x3a-1covo-1.3/pspw_hf_LiH.emovecs

 COVOs Mimimization
 ------------------
CI gradient algorithm =         3
maxit_sweeps          =         3
maxit_orb             =       120
maxit_linesearch      =        15
maxerror              = 0.100E-08

     orb,it,eci,eold,eci-eold=                    1                    1 -0.74087003141915297      -0.74087003060545675      -8.13696221513282580E-010 F
     orbital   1 current e=  0.479294E+00 error=0.613E-06 (eci= -0.740870031E+00 error=0.814E-09) iterations   1(   0 preconditioned, Ep,Sp= 20.0  200.0)
     orb,it,eci,eold,eci-eold=                    1                    1 -0.74087003141915297      -0.74087003141915297        0.0000000000000000      F
     orbital   1 current e=  0.479295E+00 error=0.141E-05 (eci= -0.740870031E+00 error=0.000E+00) iterations   1(   0 preconditioned, Ep,Sp= 20.0  200.0)
     orb,it,eci,eold,eci-eold=                    1                    1 -0.74087003141755536      -0.74087003063587353      -7.81681830375191566E-010 F
     orbital   1 current e=  0.479296E+00 error=0.571E-06 (eci= -0.740870031E+00 error=0.782E-09) iterations   1(   0 preconditioned, Ep,Sp= 20.0  200.0)

 virtual orbital energies:
     0.4792956E+00 (  13.042eV)


 == Generating One-Electron and Two-Electron Integrals ==

 begin_one_electron_integrals
    1    1        -0.8227626187
    2    1        -0.1563197045
    2    2        -0.3069404547
 end_one_electron_integrals

 begin_two_electron_integrals
    1    1    1    1        0.5121792412
    1    1    2    1        0.1563202284
    1    1    2    2        0.4521499829
    2    1    2    1        0.1180639030
    2    1    2    2        0.1433127232
    2    2    2    2        0.4223416924
 end_two_electron_integrals


 output epsi filename:/home/bylaska/Projects/Work/SNWC/H1Li1-3x3a-1covo-1.3/pspw_hf_LiH.emovecs

 Total PSPW energy     :  -0.7262865739E+00


=== Spin Contamination ===

 <Sexact^2> =    0.0000000000000000     
 <S^2>      =    0.0000000000000000     



== Center of Charge ==

spin up     (   -0.0000,   -0.0000,    1.7151 )
spin down   (   -0.0000,   -0.0000,    1.7151 )
     total  (   -0.0000,   -0.0000,    1.7151 )
ionic       (    0.0000,    0.0000,    0.6142 )


== Molecular Dipole wrt Center of Mass ==

mu   =  (    0.0000,    0.0000,   -2.2019 ) au
|mu| =     2.2019 au,       5.5965 Debye

 output psi filename:/home/bylaska/Projects/Work/SNWC/H1Li1-3x3a-1covo-1.3/pspw_hf_LiH.movecs

 Writing Crystallographic Information File:/home/bylaska/Projects/Work/SNWC/H1Li1-3x3a-1covo-1.3/LiH.cif
   - cell not shifted (nwpw:cif_shift_cell .false.)


== Timing ==

cputime in seconds
  prologue    :   0.234259E+03
  main loop   :   0.607623E+02
  epilogue    :   0.952911E+00
  total       :   0.295974E+03
  cputime/step:   0.121525E+02       (       5 evalulations,       1 linesearches)


Time spent doing                        total          step       percent
  total time                 :   0.296007E+03  0.592015E+02       100.0 %
  i/o time                   :   0.161774E+01  0.323549E+00         0.5 %
  FFTs                       :   0.450414E+02  0.900828E+01        15.2 %
  dot products               :   0.733919E+00  0.146784E+00         0.2 %
  geodesic                   :   0.124478E-01  0.248957E-02         0.0 %
  ffm_dgemm                  :   0.812056E-03  0.162411E-03         0.0 %
  fmf_dgemm                  :   0.103130E-01  0.206260E-02         0.0 %
  mmm_dgemm                  :   0.736713E-04  0.147343E-04         0.0 %
  m_diagonalize              :   0.311135E-03  0.622270E-04         0.0 %
  local pseudopotentials     :   0.888672E+00  0.177734E+00         0.3 %
  non-local pseudopotentials :   0.674587E+00  0.134917E+00         0.2 %
  structure factors          :   0.944262E-01  0.188852E-01         0.0 %
  phase factors              :   0.219345E-04  0.438690E-05         0.0 %
  masking and packing        :   0.610188E+00  0.122038E+00         0.2 %
  queue fft                  :   0.123849E+01  0.247699E+00         0.4 %
  queue fft (serial)         :   0.591165E+00  0.118233E+00         0.2 %
  queue fft (message passing):   0.641257E+00  0.128251E+00         0.2 %
  HFX potential              :   0.260541E+01  0.521081E+00         0.9 %
  non-local psp FFM          :   0.558900E+00  0.111780E+00         0.2 %
  non-local psp FMF          :   0.875390E-01  0.175078E-01         0.0 %
  non-local psp FFM A        :   0.763878E-02  0.152776E-02         0.0 %
  non-local psp FFM B        :   0.954558E-02  0.190912E-02         0.0 %

== HFX Counters ==
  HFX Evalulations         =     5
  Lin ACE HFX Evalulations =     0


     >>>  JOB COMPLETED     AT Mon Dec 27 03:40:02 2021  <<<

 Task  times  cpu:      294.4s     wall:      298.0s


                                NWChem Input Module
                                -------------------


 >>>> PSPW Parallel Module - pspw_dplot <<<<
          ****************************************************
          *                                                  *
          *                   pspw DPLOT                     *
          *                                                  *
          *    [ Generates density and orbital grids  ]      *
          *                                                  *
          *     [ NorthWest Chemistry implementation ]       *
          *                                                  *
          *            version #1.00   08/22/01              *
          *                                                  *
          ****************************************************

     >>>  JOB STARTED       AT Mon Dec 27 03:40:02 2021  <<<
          ============ PSPW DPLOT input data =================

 input psi filename:/home/bylaska/Projects/Work/SNWC/H1Li1-3x3a-1covo-1.3/pspw_hf_LiH.movecs

 number of processors used: 32
 parallel mapping         :2d hilbert
 parallel mapping         :  balanced

 options:
      boundary conditions   = aperiodic   (version4)

 number of electrons: spin up=  1  spin down=  1 ( Fourier space)

 ncell              =  0 0 0

 position tolerance = 0.100000E-02

           origin=<   0.000   0.000   0.000 >

 supercell:
      lattice: a1=<  28.346   0.000   0.000 >
               a2=<   0.000  28.346   0.000 >
               a3=<   0.000   0.000  28.346 >
               b1=<   0.222   0.000   0.000 >
               b2=<   0.000   0.222   0.000 >
               b3=<   0.000   0.000   0.222 >
      volume :    22775.6
      density cutoff=100.000  fft=140x140x140(   544264 waves    17008 per task)
      wavefnc cutoff= 50.000  fft=140x140x140(   192294 waves     6009 per task)


    writing orbital                     1  to filename: homo-restricted.cube
    writing total density to filename: density.cube

 Writing Crystallographic Information File:/home/bylaska/Projects/Work/SNWC/H1Li1-3x3a-1covo-1.3/LiH.cif
   - cell not shifted (nwpw:cif_shift_cell .false.)

 -----------------
 cputime in seconds
 total       :    223.74953913688660     

     >>>  JOB COMPLETED     AT Mon Dec 27 03:43:46 2021  <<<

 Task  times  cpu:      223.3s     wall:      223.8s


                                NWChem Input Module
                                -------------------


 >>>> PSPW Parallel Module - pspw_dplot <<<<
          ****************************************************
          *                                                  *
          *                   pspw DPLOT                     *
          *                                                  *
          *    [ Generates density and orbital grids  ]      *
          *                                                  *
          *     [ NorthWest Chemistry implementation ]       *
          *                                                  *
          *            version #1.00   08/22/01              *
          *                                                  *
          ****************************************************

     >>>  JOB STARTED       AT Mon Dec 27 03:43:46 2021  <<<
          ============ PSPW DPLOT input data =================

 input psi filename:/home/bylaska/Projects/Work/SNWC/H1Li1-3x3a-1covo-1.3/pspw_hf_LiH.emovecs

 number of processors used: 32
 parallel mapping         :2d hilbert
 parallel mapping         :  balanced

 options:
      boundary conditions   = aperiodic   (version4)

 number of electrons: spin up=  1  spin down=  1 ( Fourier space)

 ncell              =  0 0 0

 position tolerance = 0.100000E-02

           origin=<   0.000   0.000   0.000 >

 supercell:
      lattice: a1=<  28.346   0.000   0.000 >
               a2=<   0.000  28.346   0.000 >
               a3=<   0.000   0.000  28.346 >
               b1=<   0.222   0.000   0.000 >
               b2=<   0.000   0.222   0.000 >
               b3=<   0.000   0.000   0.222 >
      volume :    22775.6
      density cutoff=100.000  fft=140x140x140(   544264 waves    17008 per task)
      wavefnc cutoff= 50.000  fft=140x140x140(   192294 waves     6009 per task)


    writing orbital                     1  to filename: lumo1-restricted.cube

 Writing Crystallographic Information File:/home/bylaska/Projects/Work/SNWC/H1Li1-3x3a-1covo-1.3/LiH.cif
   - cell not shifted (nwpw:cif_shift_cell .false.)

 -----------------
 cputime in seconds
 total       :    209.82235312461853     

     >>>  JOB COMPLETED     AT Mon Dec 27 03:47:16 2021  <<<

 Task  times  cpu:      209.0s     wall:      209.8s


                                NWChem Input Module
                                -------------------


 Summary of allocated global arrays
-----------------------------------
  No active global arrays



                         GA Statistics for process    0
                         ------------------------------

       create   destroy   get      put      acc     scatter   gather  read&inc
calls:    0        0        0        0        0        0        0        0     
number of processes/call 0.00e+00 0.00e+00 0.00e+00 0.00e+00 0.00e+00
bytes total:             0.00e+00 0.00e+00 0.00e+00 0.00e+00 0.00e+00 0.00e+00
bytes remote:            0.00e+00 0.00e+00 0.00e+00 0.00e+00 0.00e+00 0.00e+00
Max memory consumed for GA by this process: 0 bytes

MA_summarize_allocated_blocks: starting scan ...
MA_summarize_allocated_blocks: scan completed: 0 heap blocks, 0 stack blocks
MA usage statistics:

	allocation statistics:
					      heap	     stack
					      ----	     -----
	current number of blocks	         0	         0
	maximum number of blocks	       315	        35
	current total bytes		         0	         0
	maximum total bytes		  92979856	  31304696
	maximum total K-bytes		     92980	     31305
	maximum total M-bytes		        93	        32


                                     CITATION
                                     --------
                Please cite the following reference when publishing
                           results obtained with NWChem:

          E. Apra, E. J. Bylaska, W. A. de Jong, N. Govind, K. Kowalski,
       T. P. Straatsma, M. Valiev, H. J. J. van Dam, Y. Alexeev, J. Anchell,
       V. Anisimov, F. W. Aquino, R. Atta-Fynn, J. Autschbach, N. P. Bauman,
     J. C. Becca, D. E. Bernholdt, K. Bhaskaran-Nair, S. Bogatko, P. Borowski,
         J. Boschen, J. Brabec, A. Bruner, E. Cauet, Y. Chen, G. N. Chuev,
      C. J. Cramer, J. Daily, M. J. O. Deegan, T. H. Dunning Jr., M. Dupuis,
   K. G. Dyall, G. I. Fann, S. A. Fischer, A. Fonari, H. Fruchtl, L. Gagliardi,
      J. Garza, N. Gawande, S. Ghosh, K. Glaesemann, A. W. Gotz, J. Hammond,
       V. Helms, E. D. Hermes, K. Hirao, S. Hirata, M. Jacquelin, L. Jensen,
   B. G. Johnson, H. Jonsson, R. A. Kendall, M. Klemm, R. Kobayashi, V. Konkov,
      S. Krishnamoorthy, M. Krishnan, Z. Lin, R. D. Lins, R. J. Littlefield,
      A. J. Logsdail, K. Lopata, W. Ma, A. V. Marenich, J. Martin del Campo,
   D. Mejia-Rodriguez, J. E. Moore, J. M. Mullin, T. Nakajima, D. R. Nascimento,
    J. A. Nichols, P. J. Nichols, J. Nieplocha, A. Otero-de-la-Roza, B. Palmer,
    A. Panyala, T. Pirojsirikul, B. Peng, R. Peverati, J. Pittner, L. Pollack,
   R. M. Richard, P. Sadayappan, G. C. Schatz, W. A. Shelton, D. W. Silverstein,
   D. M. A. Smith, T. A. Soares, D. Song, M. Swart, H. L. Taylor, G. S. Thomas,
            V. Tipparaju, D. G. Truhlar, K. Tsemekhman, T. Van Voorhis,
      A. Vazquez-Mayagoitia, P. Verma, O. Villa, A. Vishnu, K. D. Vogiatzis,
        D. Wang, J. H. Weare, M. J. Williamson, T. L. Windus, K. Wolinski,
        A. T. Wong, Q. Wu, C. Yang, Q. Yu, M. Zacharias, Z. Zhang, Y. Zhao,
                                and R. J. Harrison
                        "NWChem: Past, present, and future
                         J. Chem. Phys. 152, 184102 (2020)
                               doi:10.1063/5.0004997

                                      AUTHORS
                                      -------
     E. Apra, E. J. Bylaska, N. Govind, K. Kowalski, M. Valiev, W. A. de Jong,
      T. P. Straatsma, H. J. J. van Dam, D. Wang, T. L. Windus, N. P. Bauman,
       A. Panyala, J. Hammond, J. Autschbach, K. Bhaskaran-Nair, J. Brabec,
    K. Lopata, S. A. Fischer, S. Krishnamoorthy, M. Jacquelin, W. Ma, M. Klemm,
       O. Villa, Y. Chen, V. Anisimov, F. Aquino, S. Hirata, M. T. Hackler,
           Eric Hermes, L. Jensen, J. E. Moore, J. C. Becca, V. Konjkov,
            D. Mejia-Rodriguez, T. Risthaus, M. Malagoli, A. Marenich,
   A. Otero-de-la-Roza, J. Mullin, P. Nichols, R. Peverati, J. Pittner, Y. Zhao,
        P.-D. Fan, A. Fonari, M. J. Williamson, R. J. Harrison, J. R. Rehr,
      M. Dupuis, D. Silverstein, D. M. A. Smith, J. Nieplocha, V. Tipparaju,
      M. Krishnan, B. E. Van Kuiken, A. Vazquez-Mayagoitia, M. Swart, Q. Wu,
   T. Van Voorhis, A. A. Auer, M. Nooijen, L. D. Crosby, E. Brown, G. Cisneros,
     G. I. Fann, H. Fruchtl, J. Garza, K. Hirao, R. A. Kendall, J. A. Nichols,
       K. Tsemekhman, K. Wolinski, J. Anchell, D. E. Bernholdt, P. Borowski,
       T. Clark, D. Clerc, H. Dachsel, M. J. O. Deegan, K. Dyall, D. Elwood,
      E. Glendening, M. Gutowski, A. C. Hess, J. Jaffe, B. G. Johnson, J. Ju,
        R. Kobayashi, R. Kutteh, Z. Lin, R. Littlefield, X. Long, B. Meng,
      T. Nakajima, S. Niu, L. Pollack, M. Rosing, K. Glaesemann, G. Sandrone,
      M. Stave, H. Taylor, G. Thomas, J. H. van Lenthe, A. T. Wong, Z. Zhang.

 Total times  cpu:      727.4s     wall:      732.4s


# MYMACHINENAME: Eric Bylaska - arrow10.emsl.pnl.gov :MYMACHINENAME