&FCI NORB= 13,NELEC=  2,MS2=0,
 ORBSYM=1,1,1,1,1,1,1,1,1,1,1,1,1
 ISYM=1,
&END
 8.3605122700e-02     1     1     2     2
 2.7145844800e-02     1     1     2     3
-1.5722301000e-03     1     1     2     4
-3.9486400000e-05     1     1     2     5
-3.2874000000e-06     1     1     2     6
-2.0877812000e-03     1     1     2     7
-4.0586086000e-03     1     1     2     8
 8.4476300000e-05     1     1     2     9
-2.6398200000e-05     1     1     2    10
 7.9612800000e-05     1     1     2    11
-3.1385350000e-04     1     1     2    12
 2.7429520000e-04     1     1     2    13
 2.7145844800e-02     1     1     3     2
 2.4461786250e-01     1     1     3     3
-3.9863250000e-04     1     1     3     4
-7.5066000000e-06     1     1     3     5
-6.1300000000e-07     1     1     3     6
 7.6246318600e-02     1     1     3     7
-2.7189341000e-02     1     1     3     8
 5.6982740000e-04     1     1     3     9
-1.8029780000e-04     1     1     3    10
-1.6450000000e-07     1     1     3    11
 9.4538800000e-04     1     1     3    12
-6.0764110000e-04     1     1     3    13
-1.5722301000e-03     1     1     4     2
-3.9863250000e-04     1     1     4     3
 2.7564297280e-01     1     1     4     4
-2.6541700000e-05     1     1     4     5
-2.3333000000e-06     1     1     4     6
 1.8390371600e-02     1     1     4     7
 6.4713808200e-02     1     1     4     8
 1.6214790000e-04     1     1     4     9
 4.4564240000e-04     1     1     4    10
 1.8349880000e-04     1     1     4    11
-1.0338550700e-02     1     1     4    12
 6.6455288000e-03     1     1     4    13
-3.9486400000e-05     1     1     5     2
-7.5066000000e-06     1     1     5     3
-2.6541700000e-05     1     1     5     4
 2.7727885350e-01     1     1     5     5
 1.8180000000e-07     1     1     5     6
 4.1490620000e-04     1     1     5     7
 1.5304160000e-04     1     1     5     8
-6.5643298400e-02     1     1     5     9
-6.3142350000e-03     1     1     5    10
-8.4609203000e-03     1     1     5    11
-1.9768523000e-03     1     1     5    12
-1.8356940000e-03     1     1     5    13
-3.2874000000e-06     1     1     6     2
-6.1300000000e-07     1     1     6     3
-2.3333000000e-06     1     1     6     4
 1.8180000000e-07     1     1     6     5
 2.7728036590e-01     1     1     6     6
 3.6175800000e-05     1     1     6     7
-4.4021170000e-04     1     1     6     8
-6.3143217000e-03     1     1     6     9
 6.5644527100e-02     1     1     6    10
 2.8625391000e-03     1     1     6    11
-5.2026187000e-03     1     1     6    12
-5.0548781000e-03     1     1     6    13
-2.0877812000e-03     1     1     7     2
 7.6246318600e-02     1     1     7     3
 1.8390371600e-02     1     1     7     4
 4.1490620000e-04     1     1     7     5
 3.6175800000e-05     1     1     7     6
 3.0098620650e-01     1     1     7     7
-2.8540581000e-03     1     1     7     8
 5.3260300000e-05     1     1     7     9
-1.7648700000e-05     1     1     7    10
 2.7367510000e-04     1     1     7    11
-2.3446813000e-03     1     1     7    12
 2.0783917000e-03     1     1     7    13
-4.0586086000e-03     1     1     8     2
-2.7189341000e-02     1     1     8     3
 6.4713808200e-02     1     1     8     4
 1.5304160000e-04     1     1     8     5
-4.4021170000e-04     1     1     8     6
-2.8540581000e-03     1     1     8     7
 3.1395892840e-01     1     1     8     8
 2.0508340000e-04     1     1     8     9
-6.1952200000e-05     1     1     8    10
 3.9215140000e-04     1     1     8    11
-3.8340603000e-03     1     1     8    12
 2.8030958000e-03     1     1     8    13
 8.4476300000e-05     1     1     9     2
 5.6982740000e-04     1     1     9     3
 1.6214790000e-04     1     1     9     4
-6.5643298400e-02     1     1     9     5
-6.3143217000e-03     1     1     9     6
 5.3260300000e-05     1     1     9     7
 2.0508340000e-04     1     1     9     8
 3.2548395430e-01     1     1     9     9
 6.1810000000e-07     1     1     9    10
 3.6672286000e-03     1     1     9    11
 1.0893615000e-03     1     1     9    12
 1.0527708000e-03     1     1     9    13
-2.6398200000e-05     1     1    10     2
-1.8029780000e-04     1     1    10     3
 4.4564240000e-04     1     1    10     4
-6.3142350000e-03     1     1    10     5
 6.5644527100e-02     1     1    10     6
-1.7648700000e-05     1     1    10     7
-6.1952200000e-05     1     1    10     8
 6.1810000000e-07     1     1    10     9
 3.2548959420e-01     1     1    10    10
 1.6588332000e-03     1     1    10    11
-2.2879668000e-03     1     1    10    12
-2.1950091000e-03     1     1    10    13
 7.9612800000e-05     1     1    11     2
-1.6450000000e-07     1     1    11     3
 1.8349880000e-04     1     1    11     4
-8.4609203000e-03     1     1    11     5
 2.8625391000e-03     1     1    11     6
 2.7367510000e-04     1     1    11     7
 3.9215140000e-04     1     1    11     8
 3.6672286000e-03     1     1    11     9
 1.6588332000e-03     1     1    11    10
 3.1187173550e-01     1     1    11    11
-8.5954000000e-06     1     1    11    12
-1.0723900000e-05     1     1    11    13
-3.1385350000e-04     1     1    12     2
 9.4538800000e-04     1     1    12     3
-1.0338550700e-02     1     1    12     4
-1.9768523000e-03     1     1    12     5
-5.2026187000e-03     1     1    12     6
-2.3446813000e-03     1     1    12     7
-3.8340603000e-03     1     1    12     8
 1.0893615000e-03     1     1    12     9
-2.2879668000e-03     1     1    12    10
-8.5954000000e-06     1     1    12    11
 3.1330597680e-01     1     1    12    12
-5.2925840000e-04     1     1    12    13
 2.7429520000e-04     1     1    13     2
-6.0764110000e-04     1     1    13     3
 6.6455288000e-03     1     1    13     4
-1.8356940000e-03     1     1    13     5
-5.0548781000e-03     1     1    13     6
 2.0783917000e-03     1     1    13     7
 2.8030958000e-03     1     1    13     8
 1.0527708000e-03     1     1    13     9
-2.1950091000e-03     1     1    13    10
-1.0723900000e-05     1     1    13    11
-5.2925840000e-04     1     1    13    12
 3.1252209460e-01     1     1    13    13
-8.3605122700e-02     1     2     2     1
-1.5663394300e-02     1     2     2     3
-7.5113186000e-03     1     2     2     4
-1.7890190000e-04     1     2     2     5
-1.5187600000e-05     1     2     2     6
 1.8591859000e-03     1     2     2     7
 4.4844167000e-03     1     2     2     8
-9.6640400000e-05     1     2     2     9
 2.9126300000e-05     1     2     2    10
-3.4057700000e-05     1     2     2    11
 8.3006490000e-04     1     2     2    12
-5.6900330000e-04     1     2     2    13
-2.7145844800e-02     1     2     3     1
-8.4380732700e-02     1     2     3     3
 2.0949404000e-03     1     2     3     4
 4.8401200000e-05     1     2     3     5
 4.0644000000e-06     1     2     3     6
-4.9400743200e-02     1     2     3     7
 1.2165232700e-02     1     2     3     8
-2.4984140000e-04     1     2     3     9
 8.1174400000e-05     1     2     3    10
-1.1148200000e-05     1     2     3    11
-8.1202150000e-04     1     2     3    12
 5.2123270000e-04     1     2     3    13
 1.5722301000e-03     1     2     4     1
 2.9359842000e-03     1     2     4     3
-1.1057235690e-01     1     2     4     4
 1.9434000000e-05     1     2     4     5
 1.7043000000e-06     1     2     4     6
-1.1226711100e-02     1     2     4     7
-4.0975642900e-02     1     2     4     8
-8.0643900000e-05     1     2     4     9
-2.8143100000e-04     1     2     4    10
-2.8509800000e-05     1     2     4    11
 2.8994719000e-03     1     2     4    12
-1.8496274000e-03     1     2     4    13
 3.9486400000e-05     1     2     5     1
 6.8773500000e-05     1     2     5     3
 2.0064600000e-05     1     2     5     4
-1.1168203600e-01     1     2     5     5
-7.6900000000e-08     1     2     5     6
-2.5227210000e-04     1     2     5     7
-1.1604450000e-04     1     2     5     8
 4.0681545900e-02     1     2     5     9
 3.9132987000e-03     1     2     5    10
 1.3408031000e-03     1     2     5    11
 3.4364520000e-04     1     2     5    12
 2.7163960000e-04     1     2     5    13
 3.2874000000e-06     1     2     6     1
 5.7951000000e-06     1     2     6     3
 1.7400000000e-06     1     2     6     4
-1.1970000000e-07     1     2     6     5
-1.1168295810e-01     1     2     6     6
-2.1901300000e-05     1     2     6     7
 2.7089250000e-04     1     2     6     8
 3.9136476000e-03     1     2     6     9
-4.0681129600e-02     1     2     6    10
-4.5326290000e-04     1     2     6    11
 8.2122950000e-04     1     2     6    12
 7.9548640000e-04     1     2     6    13
 2.0877812000e-03     1     2     7     1
-4.4496163500e-02     1     2     7     3
-8.8339754000e-03     1     2     7     4
-1.9654950000e-04     1     2     7     5
-1.7110400000e-05     1     2     7     6
-1.1919047460e-01     1     2     7     7
 3.3133944000e-03     1     2     7     8
-6.5386600000e-05     1     2     7     9
 2.0474700000e-05     1     2     7    10
-2.0025610000e-04     1     2     7    11
 1.5664959000e-03     1     2     7    12
-1.4131268000e-03     1     2     7    13
 4.0586086000e-03     1     2     8     1
 1.0941188000e-02     1     2     8     3
-3.5549323100e-02     1     2     8     4
-9.5841000000e-05     1     2     8     5
 2.3671620000e-04     1     2     8     6
 3.9637099000e-03     1     2     8     7
-1.3101177880e-01     1     2     8     8
-1.2744610000e-04     1     2     8     9
 3.8133900000e-05     1     2     8    10
-2.8808010000e-04     1     2     8    11
 3.1212297000e-03     1     2     8    12
-2.2483525000e-03     1     2     8    13
-8.4476300000e-05     1     2     9     1
-2.2451780000e-04     1     2     9     3
-7.4174900000e-05     1     2     9     4
 3.5494836900e-02     1     2     9     5
 3.4146193000e-03     1     2     9     6
-7.9986500000e-05     1     2     9     7
-1.2775960000e-04     1     2     9     8
-1.3812964350e-01     1     2     9     9
-4.0430000000e-07     1     2     9    10
-3.4297527000e-03     1     2     9    11
-1.0058213000e-03     1     2     9    12
-9.8956830000e-04     1     2     9    13
 2.6398200000e-05     1     2    10     1
 7.3023200000e-05     1     2    10     3
-2.4430960000e-04     1     2    10     4
 3.4143631000e-03     1     2    10     5
-3.5494581000e-02     1     2    10     6
 2.4769800000e-05     1     2    10     7
 3.8129000000e-05     1     2    10     8
-2.6840000000e-07     1     2    10     9
-1.3813332430e-01     1     2    10    10
-1.5491306000e-03     1     2    10    11
 2.1262588000e-03     1     2    10    12
 2.0440395000e-03     1     2    10    13
-7.9612800000e-05     1     2    11     1
-1.0913200000e-05     1     2    11     3
-3.7519200000e-05     1     2    11     4
 1.2186193000e-03     1     2    11     5
-4.1235830000e-04     1     2    11     6
-1.9291410000e-04     1     2    11     7
-2.7924080000e-04     1     2    11     8
-3.6368876000e-03     1     2    11     9
-1.6417722000e-03     1     2    11    10
-1.2926426950e-01     1     2    11    11
 1.0764800000e-05     1     2    11    12
 1.2976600000e-05     1     2    11    13
 3.1385350000e-04     1     2    12     1
-8.9456640000e-04     1     2    12     3
 2.5452816000e-03     1     2    12     4
 3.0996650000e-04     1     2    12     5
 7.4648620000e-04     1     2    12     6
 1.6769654000e-03     1     2    12     7
 3.3607270000e-03     1     2    12     8
-1.0675131000e-03     1     2    12     9
 2.2552442000e-03     1     2    12    10
 9.0410000000e-06     1     2    12    11
-1.3010535370e-01     1     2    12    12
 3.0605350000e-04     1     2    12    13
-2.7429520000e-04     1     2    13     1
 5.7254830000e-04     1     2    13     3
-1.6383821000e-03     1     2    13     4
 2.4779220000e-04     1     2    13     5
 7.2355120000e-04     1     2    13     6
-1.4701619000e-03     1     2    13     7
-2.3905754000e-03     1     2    13     8
-1.0495496000e-03     1     2    13     9
 2.1662806000e-03     1     2    13    10
 1.4093800000e-05     1     2    13    11
 3.0783170000e-04     1     2    13    12
-1.2976787240e-01     1     2    13    13
-2.7145844800e-02     1     3     2     1
 1.5663394300e-02     1     3     2     2
-8.4104380000e-04     1     3     2     4
-2.0372300000e-05     1     3     2     5
-1.7307000000e-06     1     3     2     6
-4.9045797000e-03     1     3     2     7
 1.2240447000e-03     1     3     2     8
-2.5323600000e-05     1     3     2     9
 8.1512000000e-06     1     3     2    10
-2.3500000000e-07     1     3     2    11
 8.2544900000e-05     1     3     2    12
-5.1315600000e-05     1     3     2    13
-2.4461786250e-01     1     3     3     1
 8.4380732700e-02     1     3     3     2
-8.6403630000e-03     1     3     3     4
-2.0731770000e-04     1     3     3     5
-1.7641000000e-05     1     3     3     6
-4.0109511800e-02     1     3     3     7
 1.4363361700e-02     1     3     3     8
-2.9706260000e-04     1     3     3     9
 9.5122500000e-05     1     3     3    10
-7.9269700000e-05     1     3     3    11
-1.2029600000e-05     1     3     3    12
-1.2013840000e-04     1     3     3    13
 3.9863250000e-04     1     3     4     1
-2.9359842000e-03     1     3     4     2
-6.6724575100e-02     1     3     4     4
 6.9868000000e-06     1     3     4     5
 6.1350000000e-07     1     3     4     6
-9.8577392000e-03     1     3     4     7
-4.2766683200e-02     1     3     4     8
-1.3025100000e-04     1     3     4     9
-2.9526200000e-04     1     3     4    10
-8.9288900000e-05     1     3     4    11
 2.9350725000e-03     1     3     4    12
-1.9420962000e-03     1     3     4    13
 7.5066000000e-06     1     3     5     1
-6.8773500000e-05     1     3     5     2
 7.4064000000e-06     1     3     5     4
-6.7240515800e-02     1     3     5     5
-4.9700000000e-08     1     3     5     6
-2.1979870000e-04     1     3     5     7
-7.9908800000e-05     1     3     5     8
 4.4498009800e-02     1     3     5     9
 4.2806917000e-03     1     3     5    10
 1.3670170000e-03     1     3     5    11
 3.5033580000e-04     1     3     5    12
 2.7538610000e-04     1     3     5    13
 6.1300000000e-07     1     3     6     1
-5.7951000000e-06     1     3     6     2
 6.5160000000e-07     1     3     6     4
-6.4800000000e-08     1     3     6     5
-6.7241016000e-02     1     3     6     6
-1.9195600000e-05     1     3     6     7
 2.9949640000e-04     1     3     6     8
 4.2810307000e-03     1     3     6     9
-4.4498201100e-02     1     3     6    10
-4.6358990000e-04     1     3     6    11
 8.3682160000e-04     1     3     6    12
 8.1324850000e-04     1     3     6    13
-7.6246318600e-02     1     3     7     1
 4.4496163500e-02     1     3     7     2
-4.2166646000e-03     1     3     7     4
-9.4975900000e-05     1     3     7     5
-8.2186000000e-06     1     3     7     6
-6.5773928900e-02     1     3     7     7
 1.3165863000e-03     1     3     7     8
-2.5397400000e-05     1     3     7     9
 7.8944000000e-06     1     3     7    10
-1.0319040000e-04     1     3     7    11
 1.0528026000e-03     1     3     7    12
-9.1430080000e-04     1     3     7    13
 2.7189341000e-02     1     3     8     1
-1.0941188000e-02     1     3     8     2
-1.2965400700e-02     1     3     8     4
-3.6996500000e-05     1     3     8     5
 8.5115200000e-05     1     3     8     6
 2.6562060000e-03     1     3     8     7
-7.5343959600e-02     1     3     8     8
-3.2369700000e-05     1     3     8     9
 8.3705000000e-06     1     3     8    10
-1.3738130000e-04     1     3     8    11
 2.9297478000e-03     1     3     8    12
-2.0008346000e-03     1     3     8    13
-5.6982740000e-04     1     3     9     1
 2.2451780000e-04     1     3     9     2
-2.4730400000e-05     1     3     9     4
 1.2798040000e-02     1     3     9     5
 1.2305793000e-03     1     3     9     6
-5.4605200000e-05     1     3     9     7
-3.0275500000e-05     1     3     9     8
-7.7873087700e-02     1     3     9     9
-3.4740000000e-07     1     3     9    10
-2.3703329000e-03     1     3     9    11
-7.1266110000e-04     1     3     9    12
-6.7297120000e-04     1     3     9    13
 1.8029780000e-04     1     3    10     1
-7.3023200000e-05     1     3    10     2
-8.8932700000e-05     1     3    10     4
 1.2305474000e-03     1     3    10     5
-1.2797722800e-02     1     3    10     6
 1.6929800000e-05     1     3    10     7
 8.3530000000e-06     1     3    10     8
 2.4500000000e-07     1     3    10     9
-7.7876099500e-02     1     3    10    10
-1.0681410000e-03     1     3    10    11
 1.4676400000e-03     1     3    10    12
 1.4071405000e-03     1     3    10    13
 1.6450000000e-07     1     3    11     1
 1.0913200000e-05     1     3    11     2
 9.6636000000e-06     1     3    11     4
 4.5574900000e-05     1     3    11     5
-1.4858400000e-05     1     3    11     6
-8.4667600000e-05     1     3    11     7
-1.4447920000e-04     1     3    11     8
-3.1249827000e-03     1     3    11     9
-1.4070949000e-03     1     3    11    10
-6.3595165800e-02     1     3    11    11
 3.1448000000e-06     1     3    11    12
 4.5200000000e-07     1     3    11    13
-9.4538800000e-04     1     3    12     1
 8.9456640000e-04     1     3    12     2
 5.4704490000e-04     1     3    12     4
 2.1684200000e-05     1     3    12     5
 2.5001500000e-05     1     3    12     6
 9.0694540000e-04     1     3    12     7
 3.6061575000e-03     1     3    12     8
-9.3430220000e-04     1     3    12     9
 1.9379510000e-03     1     3    12    10
 5.3137000000e-06     1     3    12    11
-6.4470249700e-02     1     3    12    12
 3.6236310000e-04     1     3    12    13
 6.0764110000e-04     1     3    13     1
-5.7254830000e-04     1     3    13     2
-3.3402590000e-04     1     3    13     4
 3.1350000000e-06     1     3    13     5
 2.4170200000e-05     1     3    13     6
-7.7229000000e-04     1     3    13     7
-2.4361608000e-03     1     3    13     8
-8.9302770000e-04     1     3    13     9
 1.8538295000e-03     1     3    13    10
-1.3212000000e-06     1     3    13    11
 3.6124160000e-04     1     3    13    12
-6.3937444700e-02     1     3    13    13
 1.5722301000e-03     1     4     2     1
 7.5113186000e-03     1     4     2     2
 8.4104380000e-04     1     4     2     3
-6.3060000000e-07     1     4     2     5
-3.5700000000e-08     1     4     2     6
-2.3927357000e-03     1     4     2     7
-5.4263198000e-03     1     4     2     8
-6.4690000000e-06     1     4     2     9
-3.7121400000e-05     1     4     2    10
 9.0094000000e-06     1     4     2    11
 3.5419030000e-04     1     4     2    12
-2.1124530000e-04     1     4     2    13
 3.9863250000e-04     1     4     3     1
-2.0949404000e-03     1     4     3     2
 8.6403630000e-03     1     4     3     3
-4.1960000000e-07     1     4     3     5
-3.8100000000e-08     1     4     3     6
-5.6410746000e-03     1     4     3     7
-2.9801282500e-02     1     4     3     8
-1.0552060000e-04     1     4     3     9
-2.0632930000e-04     1     4     3    10
-9.8952500000e-05     1     4     3    11
 2.3880276000e-03     1     4     3    12
-1.6080703000e-03     1     4     3    13
-2.7564297280e-01     1     4     4     1
 1.1057235690e-01     1     4     4     2
 6.6724575100e-02     1     4     4     3
-2.5524940000e-04     1     4     4     5
-2.1713600000e-05     1     4     4     6
 2.0451893200e-02     1     4     4     7
-1.1086251000e-03     1     4     4     8
 5.8352700000e-05     1     4     4     9
-3.2157000000e-06     1     4     4    10
 1.3131390000e-03     1     4     4    11
-2.8788343500e-02     1     4     4    12
 1.8872593700e-02     1     4     4    13
 2.6541700000e-05     1     4     5     1
-2.0064600000e-05     1     4     5     2
-7.4064000000e-06     1     4     5     3
 1.0735858900e-02     1     4     5     5
 8.3000000000e-09     1     4     5     6
 5.0150000000e-06     1     4     5     7
-4.9910300000e-05     1     4     5     8
-1.1273635000e-03     1     4     5     9
-1.0683880000e-04     1     4     5    10
-3.0973925600e-02     1     4     5    11
-7.4336284000e-03     1     4     5    12
-7.0823651000e-03     1     4     5    13
 2.3333000000e-06     1     4     6     1
-1.7400000000e-06     1     4     6     2
-6.5160000000e-07     1     4     6     3
 6.8000000000e-09     1     4     6     5
 1.0735845800e-02     1     4     6     6
 1.0881000000e-06     1     4     6     7
-1.2154500000e-05     1     4     6     8
-1.0505560000e-04     1     4     6     9
 1.1360009000e-03     1     4     6    10
 1.0456941300e-02     1     4     6    11
-1.9243718500e-02     1     4     6    12
-1.8366227800e-02     1     4     6    13
-1.8390371600e-02     1     4     7     1
 8.8339754000e-03     1     4     7     2
 4.2166646000e-03     1     4     7     3
 7.2300000000e-08     1     4     7     5
 1.2600000000e-08     1     4     7     6
 1.6609290500e-02     1     4     7     7
-9.5048110000e-03     1     4     7     8
 1.4803100000e-05     1     4     7     9
-6.7921900000e-05     1     4     7    10
 3.4205300000e-05     1     4     7    11
-1.7407214000e-03     1     4     7    12
 1.0891253000e-03     1     4     7    13
-6.4713808200e-02     1     4     8     1
 3.5549323100e-02     1     4     8     2
 1.2965400700e-02     1     4     8     3
-1.1887600000e-05     1     4     8     5
-4.5671000000e-06     1     4     8     6
 1.2744641800e-02     1     4     8     7
 8.6005974000e-03     1     4     8     8
 7.3836600000e-05     1     4     8     9
-2.1651200000e-05     1     4     8    10
 2.7266700000e-04     1     4     8    11
-6.3302608000e-03     1     4     8    12
 4.2233238000e-03     1     4     8    13
-1.6214790000e-04     1     4     9     1
 7.4174900000e-05     1     4     9     2
 2.4730400000e-05     1     4     9     3
-5.0791580000e-04     1     4     9     5
-4.8852100000e-05     1     4     9     6
 5.0961100000e-05     1     4     9     7
-5.9554300000e-05     1     4     9     8
 1.2080301800e-02     1     4     9     9
-1.5600000000e-06     1     4     9    10
 5.5127883000e-03     1     4     9    11
 1.7446206000e-03     1     4     9    12
 1.6471541000e-03     1     4     9    13
-4.4564240000e-04     1     4    10     1
 2.4430960000e-04     1     4    10     2
 8.8932700000e-05     1     4    10     3
-4.8955500000e-05     1     4    10     5
 5.0794760000e-04     1     4    10     6
 8.5815000000e-05     1     4    10     7
-2.4594000000e-05     1     4    10     8
 1.5651000000e-06     1     4    10     9
 1.2077818100e-02     1     4    10    10
 2.4754861000e-03     1     4    10    11
-3.5298419000e-03     1     4    10    12
-3.2605141000e-03     1     4    10    13
-1.8349880000e-04     1     4    11     1
 3.7519200000e-05     1     4    11     2
-9.6636000000e-06     1     4    11     3
-1.8289920000e-04     1     4    11     5
 5.9400600000e-05     1     4    11     6
 1.2222700000e-05     1     4    11     7
-1.8470700000e-04     1     4    11     8
-5.7302704000e-03     1     4    11     9
-2.5702171000e-03     1     4    11    10
 9.4610786000e-03     1     4    11    11
 3.0964700000e-05     1     4    11    12
-2.2808600000e-05     1     4    11    13
 1.0338550700e-02     1     4    12     1
-2.5452816000e-03     1     4    12     2
-5.4704490000e-04     1     4    12     3
-3.4934600000e-05     1     4    12     5
-1.0599930000e-04     1     4    12     6
-3.0058050000e-04     1     4    12     7
 4.2060133000e-03     1     4    12     8
-1.7262437000e-03     1     4    12     9
 3.5136811000e-03     1     4    12    10
-6.5581000000e-06     1     4    12    11
 9.4877255000e-03     1     4    12    12
 5.2213200000e-05     1     4    12    13
-6.6455288000e-03     1     4    13     1
 1.6383821000e-03     1     4    13     2
 3.3402590000e-04     1     4    13     3
-4.2354900000e-05     1     4    13     5
-1.1484940000e-04     1     4    13     6
 1.8824370000e-04     1     4    13     7
-2.7928399000e-03     1     4    13     8
-1.6930690000e-03     1     4    13     9
 3.3334182000e-03     1     4    13    10
-1.8471900000e-05     1     4    13    11
 6.9121100000e-05     1     4    13    12
 9.5668609000e-03     1     4    13    13
 3.9486400000e-05     1     5     2     1
 1.7890190000e-04     1     5     2     2
 2.0372300000e-05     1     5     2     3
 6.3060000000e-07     1     5     2     4
 4.2800000000e-08     1     5     2     6
-5.5722600000e-05     1     5     2     7
-2.0203500000e-05     1     5     2     8
 5.1867090000e-03     1     5     2     9
 4.9893560000e-04     1     5     2    10
 1.2218380000e-04     1     5     2    11
 3.3678700000e-05     1     5     2    12
 2.3847400000e-05     1     5     2    13
 7.5066000000e-06     1     5     3     1
-4.8401200000e-05     1     5     3     2
 2.0731770000e-04     1     5     3     3
 4.1960000000e-07     1     5     3     4
 1.5100000000e-08     1     5     3     6
-1.2482280000e-04     1     5     3     7
-4.2912300000e-05     1     5     3     8
 3.1699969800e-02     1     5     3     9
 3.0501443000e-03     1     5     3    10
 1.3214421000e-03     1     5     3    11
 3.2865160000e-04     1     5     3    12
 2.7225110000e-04     1     5     3    13
 2.6541700000e-05     1     5     4     1
-1.9434000000e-05     1     5     4     2
-6.9868000000e-06     1     5     4     3
 2.5524940000e-04     1     5     4     4
 1.5000000000e-09     1     5     4     6
 4.9427000000e-06     1     5     4     7
-3.8022700000e-05     1     5     4     8
-6.1944770000e-04     1     5     4     9
-5.7883300000e-05     1     5     4    10
-3.0791026400e-02     1     5     4    11
-7.3986938000e-03     1     5     4    12
-7.0400102000e-03     1     5     4    13
-2.7727885350e-01     1     5     5     1
 1.1168203600e-01     1     5     5     2
 6.7240515800e-02     1     5     5     3
-1.0735858900e-02     1     5     5     4
-2.1878100000e-05     1     5     5     6
 2.0457003500e-02     1     5     5     7
 1.3478460000e-04     1     5     5     8
-4.2199700000e-05     1     5     5     9
-9.5525000000e-06     1     5     5    10
-2.5064275000e-03     1     5     5    11
 1.6121909100e-02     1     5     5    12
 9.1036971000e-03     1     5     5    13
-1.8180000000e-07     1     5     6     1
 1.1970000000e-07     1     5     6     2
 6.4800000000e-08     1     5     6     3
-6.8000000000e-09     1     5     6     4
 2.5737050000e-04     1     5     6     6
-1.5099000000e-06     1     5     6     7
-1.1440000000e-07     1     5     6     8
-4.2859000000e-06     1     5     6     9
 2.6362000000e-05     1     5     6    10
 1.6208507000e-03     1     5     6    11
 2.7738001000e-03     1     5     6    12
-7.6548434000e-03     1     5     6    13
-4.1490620000e-04     1     5     7     1
 1.9654950000e-04     1     5     7     2
 9.4975900000e-05     1     5     7     3
-7.2300000000e-08     1     5     7     4
-2.5200000000e-08     1     5     7     6
 3.9269970000e-04     1     5     7     7
-5.6607100000e-05     1     5     7     8
 8.3438935000e-03     1     5     7     9
 8.0353810000e-04     1     5     7    10
-2.3071896000e-03     1     5     7    11
-5.1482790000e-04     1     5     7    12
-5.2515580000e-04     1     5     7    13
-1.5304160000e-04     1     5     8     1
 9.5841000000e-05     1     5     8     2
 3.6996500000e-05     1     5     8     3
 1.1887600000e-05     1     5     8     4
-7.7300000000e-08     1     5     8     6
 1.2523400000e-05     1     5     8     7
 3.1936180000e-04     1     5     8     8
-4.7323490000e-04     1     5     8     9
-4.5215900000e-05     1     5     8    10
-5.5417436000e-03     1     5     8    11
-1.3771635000e-03     1     5     8    12
-1.2550213000e-03     1     5     8    13
 6.5643298400e-02     1     5     9     1
-3.5494836900e-02     1     5     9     2
-1.2798040000e-02     1     5     9     3
 5.0791580000e-04     1     5     9     4
-1.2410000000e-07     1     5     9     6
-1.3479412900e-02     1     5     9     7
 5.4120765000e-03     1     5     9     8
 1.8245880000e-04     1     5     9     9
 3.7803900000e-05     1     5     9    10
 4.2528700000e-04     1     5     9    11
-3.5326036000e-03     1     5     9    12
-1.6760672000e-03     1     5     9    13
 6.3142350000e-03     1     5    10     1
-3.4143631000e-03     1     5    10     2
-1.2305474000e-03     1     5    10     3
 4.8955500000e-05     1     5    10     4
 1.2075800000e-05     1     5    10     6
-1.2965901000e-03     1     5    10     7
 5.2049590000e-04     1     5    10     8
-1.5572400000e-05     1     5    10     9
 2.9212090000e-04     1     5    10    10
 3.0707330000e-04     1     5    10    11
 1.7046940000e-04     1     5    10    12
-1.6127430000e-03     1     5    10    13
 8.4609203000e-03     1     5    11     1
-1.2186193000e-03     1     5    11     2
-4.5574900000e-05     1     5    11     3
 1.8289920000e-04     1     5    11     4
 1.0749000000e-06     1     5    11     6
 7.0063900000e-05     1     5    11     7
 5.7715018000e-03     1     5    11     8
-3.8139930000e-04     1     5    11     9
-3.1110090000e-04     1     5    11    10
 2.4505570000e-04     1     5    11    11
-1.5914204000e-03     1     5    11    12
 7.6557030000e-04     1     5    11    13
 1.9768523000e-03     1     5    12     1
-3.0996650000e-04     1     5    12     2
-2.1684200000e-05     1     5    12     3
 3.4934600000e-05     1     5    12     4
-2.5815000000e-06     1     5    12     6
 1.1742700000e-05     1     5    12     7
 1.3482495000e-03     1     5    12     8
 2.6176735000e-03     1     5    12     9
-2.7800500000e-04     1     5    12    10
 6.8269970000e-04     1     5    12    11
 8.9871800000e-05     1     5    12    12
 4.4629180000e-04     1     5    12    13
 1.8356940000e-03     1     5    13     1
-2.4779220000e-04     1     5    13     2
-3.1350000000e-06     1     5    13     3
 4.2354900000e-05     1     5    13     4