&FCI NORB= 13,NELEC=  2,MS2=0,
 ORBSYM=1,1,1,1,1,1,1,1,1,1,1,1,1
 ISYM=1,
&END
 3.3408731870e-01     1     1     2     2
 9.9900000000e-08     1     1     2     3
-1.3684000000e-06     1     1     2     4
-2.8483474000e-03     1     1     2     5
-1.0256562450e-01     1     1     2     6
 2.7026470000e-04     1     1     2     7
-2.8978470000e-04     1     1     2     8
-2.3358882300e-02     1     1     2     9
-8.6619270000e-04     1     1     2    10
-8.9068400000e-05     1     1     2    11
-5.5030900000e-05     1     1     2    12
-5.8045000000e-05     1     1     2    13
 9.9900000000e-08     1     1     3     2
 3.6891547410e-01     1     1     3     3
-3.6000000000e-09     1     1     3     4
-2.3106000000e-06     1     1     3     5
 1.0595990000e-04     1     1     3     6
 7.5760011200e-02     1     1     3     7
 3.3407065900e-02     1     1     3     8
-8.6961300000e-05     1     1     3     9
 3.5944400000e-05     1     1     3    10
-3.1315600000e-05     1     1     3    11
 7.8299954000e-03     1     1     3    12
 2.9136117700e-02     1     1     3    13
-1.3684000000e-06     1     1     4     2
-3.6000000000e-09     1     1     4     3
 3.6892291390e-01     1     1     4     4
 2.2416000000e-05     1     1     4     5
-2.9234540000e-04     1     1     4     6
-3.3409082500e-02     1     1     4     7
 7.5758447500e-02     1     1     4     8
-9.2011200000e-05     1     1     4     9
-1.8282400000e-05     1     1     4    10
 2.8784500000e-04     1     1     4    11
 2.9134831400e-02     1     1     4    12
-7.8221894000e-03     1     1     4    13
-2.8483474000e-03     1     1     5     2
-2.3106000000e-06     1     1     5     3
 2.2416000000e-05     1     1     5     4
 4.0104635250e-01     1     1     5     5
 1.8063488900e-02     1     1     5     6
-3.6638700000e-05     1     1     5     7
 1.6575300000e-05     1     1     5     8
-8.0652446300e-02     1     1     5     9
-2.9561817000e-03     1     1     5    10
-2.9737480000e-04     1     1     5    11
-1.8833140000e-04     1     1     5    12
-1.6744100000e-04     1     1     5    13
-1.0256562450e-01     1     1     6     2
 1.0595990000e-04     1     1     6     3
-2.9234540000e-04     1     1     6     4
 1.8063488900e-02     1     1     6     5
 4.4390019650e-01     1     1     6     6
-1.5848300000e-05     1     1     6     7
 1.8011100000e-05     1     1     6     8
 1.5643038000e-03     1     1     6     9
 4.2675500000e-05     1     1     6    10
 3.3033000000e-06     1     1     6    11
-3.2961200000e-05     1     1     6    12
 1.3384600000e-05     1     1     6    13
 2.7026470000e-04     1     1     7     2
 7.5760011200e-02     1     1     7     3
-3.3409082500e-02     1     1     7     4
-3.6638700000e-05     1     1     7     5
-1.5848300000e-05     1     1     7     6
 4.4660776800e-01     1     1     7     7
-8.5400000000e-08     1     1     7     8
-1.3388800000e-05     1     1     7     9
 3.9482000000e-06     1     1     7    10
-4.7804000000e-06     1     1     7    11
-3.3366020000e-04     1     1     7    12
 2.1552101000e-03     1     1     7    13
-2.8978470000e-04     1     1     8     2
 3.3407065900e-02     1     1     8     3
 7.5758447500e-02     1     1     8     4
 1.6575300000e-05     1     1     8     5
 1.8011100000e-05     1     1     8     6
-8.5400000000e-08     1     1     8     7
 4.4661256720e-01     1     1     8     8
 9.1170000000e-07     1     1     8     9
 1.0263000000e-06     1     1     8    10
 2.1154500000e-05     1     1     8    11
 2.1560923000e-03     1     1     8    12
 3.3686400000e-04     1     1     8    13
-2.3358882300e-02     1     1     9     2
-8.6961300000e-05     1     1     9     3
-9.2011200000e-05     1     1     9     4
-8.0652446300e-02     1     1     9     5
 1.5643038000e-03     1     1     9     6
-1.3388800000e-05     1     1     9     7
 9.1170000000e-07     1     1     9     8
 4.4944350830e-01     1     1     9     9
 6.5802300000e-04     1     1     9    10
 6.6559800000e-05     1     1     9    11
 2.5045300000e-05     1     1     9    12
 2.5275800000e-05     1     1     9    13
-8.6619270000e-04     1     1    10     2
 3.5944400000e-05     1     1    10     3
-1.8282400000e-05     1     1    10     4
-2.9561817000e-03     1     1    10     5
 4.2675500000e-05     1     1    10     6
 3.9482000000e-06     1     1    10     7
 1.0263000000e-06     1     1    10     8
 6.5802300000e-04     1     1    10     9
 4.1914040230e-01     1     1    10    10
 2.3149000000e-06     1     1    10    11
 5.4580000000e-07     1     1    10    12
 9.1993000000e-06     1     1    10    13
-8.9068400000e-05     1     1    11     2
-3.1315600000e-05     1     1    11     3
 2.8784500000e-04     1     1    11     4
-2.9737480000e-04     1     1    11     5
 3.3033000000e-06     1     1    11     6
-4.7804000000e-06     1     1    11     7
 2.1154500000e-05     1     1    11     8
 6.6559800000e-05     1     1    11     9
 2.3149000000e-06     1     1    11    10
 4.1910303450e-01     1     1    11    11
 5.6490900000e-05     1     1    11    12
-2.5795000000e-05     1     1    11    13
-5.5030900000e-05     1     1    12     2
 7.8299954000e-03     1     1    12     3
 2.9134831400e-02     1     1    12     4
-1.8833140000e-04     1     1    12     5
-3.2961200000e-05     1     1    12     6
-3.3366020000e-04     1     1    12     7
 2.1560923000e-03     1     1    12     8
 2.5045300000e-05     1     1    12     9
 5.4580000000e-07     1     1    12    10
 5.6490900000e-05     1     1    12    11
 4.3132863160e-01     1     1    12    12
 4.7810000000e-07     1     1    12    13
-5.8045000000e-05     1     1    13     2
 2.9136117700e-02     1     1    13     3
-7.8221894000e-03     1     1    13     4
-1.6744100000e-04     1     1    13     5
 1.3384600000e-05     1     1    13     6
 2.1552101000e-03     1     1    13     7
 3.3686400000e-04     1     1    13     8
 2.5275800000e-05     1     1    13     9
 9.1993000000e-06     1     1    13    10
-2.5795000000e-05     1     1    13    11
 4.7810000000e-07     1     1    13    12
 4.3133191050e-01     1     1    13    13
-3.3408731870e-01     1     2     2     1
 1.1087000000e-06     1     2     2     3
-5.9860000000e-06     1     2     2     4
-5.6071586000e-03     1     2     2     5
-6.1571968100e-02     1     2     2     6
 1.6316080000e-04     1     2     2     7
-1.7459300000e-04     1     2     2     8
-1.5779995500e-02     1     2     2     9
-5.7791100000e-04     1     2     2    10
-5.9489600000e-05     1     2     2    11
-3.9454100000e-05     1     2     2    12
-3.7726800000e-05     1     2     2    13
-9.9900000000e-08     1     2     3     1
 1.0349662550e-01     1     2     3     3
-5.0000000000e-10     1     2     3     4
-4.8800000000e-08     1     2     3     5
 7.1332900000e-05     1     2     3     6
 5.1113804000e-02     1     2     3     7
 2.2539923700e-02     1     2     3     8
-5.1258800000e-05     1     2     3     9
 2.0862400000e-05     1     2     3    10
-1.5922000000e-05     1     2     3    11
 4.5062761000e-03     1     2     3    12
 1.6772290900e-02     1     2     3    13
 1.3684000000e-06     1     2     4     1
-3.0000000000e-10     1     2     4     3
 1.0349924600e-01     1     2     4     4
 3.2300000000e-07     1     2     4     5
-1.9818370000e-04     1     2     4     6
-2.2540765300e-02     1     2     4     7
 5.1112894100e-02     1     2     4     8
-5.4684200000e-05     1     2     4     9
-1.0379800000e-05     1     2     4    10
 1.6481580000e-04     1     2     4    11
 1.6771615500e-02     1     2     4    12
-4.5010010000e-03     1     2     4    13
 2.8483474000e-03     1     2     5     1
-1.4210000000e-07     1     2     5     3
 1.6752000000e-06     1     2     5     4
 1.1011562520e-01     1     2     5     5
 9.9501422000e-03     1     2     5     6
-1.7997200000e-05     1     2     5     7
 3.8899000000e-06     1     2     5     8
-5.2596239000e-02     1     2     5     9
-1.9000292000e-03     1     2     5    10
-1.9088580000e-04     1     2     5    11
-1.1474120000e-04     1     2     5    12
-1.0999540000e-04     1     2     5    13
 1.0256562450e-01     1     2     6     1
 1.6520800000e-05     1     2     6     3
-4.5534400000e-05     1     2     6     4
 2.5749299000e-03     1     2     6     5
 1.1829142080e-01     1     2     6     6
-1.3554600000e-05     1     2     6     7
 1.4862700000e-05     1     2     6     8
 1.8870253000e-03     1     2     6     9
 6.4992000000e-05     1     2     6    10
 6.0505000000e-06     1     2     6    11
-2.1631200000e-05     1     2     6    12
 1.4670200000e-05     1     2     6    13
-2.7026470000e-04     1     2     7     1
 1.1908731400e-02     1     2     7     3
-5.2489139000e-03     1     2     7     4
-7.4687000000e-06     1     2     7     5
-1.4029200000e-05     1     2     7     6
 1.1829807730e-01     1     2     7     7
 4.8320000000e-07     1     2     7     8
-1.3841100000e-05     1     2     7     9
 4.8006000000e-06     1     2     7    10
-1.3438700000e-05     1     2     7    11
-5.0093990000e-04     1     2     7    12
 3.2462086000e-03     1     2     7    13
 2.8978470000e-04     1     2     8     1
 5.2491812000e-03     1     2     8     3
 1.1907400200e-02     1     2     8     4
 5.5670000000e-06     1     2     8     5
 1.5594300000e-05     1     2     8     6
-1.0688000000e-06     1     2     8     7
 1.1830090560e-01     1     2     8     8
-1.8489000000e-06     1     2     8     9
 1.8920000000e-07     1     2     8    10
 2.9034300000e-05     1     2     8    11
 3.2468417000e-03     1     2     8    12
 5.0304510000e-04     1     2     8    13
 2.3358882300e-02     1     2     9     1
-1.0461900000e-05     1     2     9     3
-1.7583700000e-05     1     2     9     4
-1.5527594100e-02     1     2     9     5
 2.6783840000e-04     1     2     9     6
-6.5964000000e-06     1     2     9     7
-2.6585000000e-06     1     2     9     8
 1.2261420920e-01     1     2     9     9
 6.0795360000e-04     1     2     9    10
 6.1355700000e-05     1     2     9    11
 2.3995700000e-05     1     2     9    12
 2.5061100000e-05     1     2     9    13
 8.6619270000e-04     1     2    10     1
 4.5889000000e-06     1     2    10     3
-2.1724000000e-06     1     2    10     4
-5.5863990000e-04     1     2    10     5
 6.4116000000e-06     1     2    10     6
 3.1310000000e-06     1     2    10     7
 5.3630000000e-07     1     2    10     8
 6.0568830000e-04     1     2    10     9
 9.9331117700e-02     1     2    10    10
 2.1548000000e-06     1     2    10    11
 4.9480000000e-07     1     2    10    12
 7.4918000000e-06     1     2    10    13
 8.9068400000e-05     1     2    11     1
-3.2530000000e-06     1     2    11     3
 3.4969700000e-05     1     2    11     4
-5.6179900000e-05     1     2    11     5
 9.4600000000e-08     1     2    11     6
-5.8105000000e-06     1     2    11     7
 1.6853300000e-05     1     2    11     8
 6.1138400000e-05     1     2    11     9
 2.1547000000e-06     1     2    11    10
 9.9302332700e-02     1     2    11    11
 4.4712300000e-05     1     2    11    12
-1.9835300000e-05     1     2    11    13
 5.5030900000e-05     1     2    12     1
 9.6431390000e-04     1     2    12     3
 3.5913645000e-03     1     2    12     4
-3.3415800000e-05     1     2    12     5
-2.1838700000e-05     1     2    12     6
-2.7323080000e-04     1     2    12     7
 1.7674681000e-03     1     2    12     8
 2.4069700000e-05     1     2    12     9
 3.2750000000e-07     1     2    12    10
 4.5018200000e-05     1     2    12    11
 1.0753153060e-01     1     2    12    12
 1.1490000000e-07     1     2    12    13
 5.8045000000e-05     1     2    13     1
 3.5917075000e-03     1     2    13     3
-9.6309660000e-04     1     2    13     4
-3.3037800000e-05     1     2    13     5
 8.1984000000e-06     1     2    13     6
 1.7666123000e-03     1     2    13     7
 2.7498510000e-04     1     2    13     8
 2.5841300000e-05     1     2    13     9
 7.4624000000e-06     1     2    13    10
-2.0292900000e-05     1     2    13    11
 7.7790000000e-07     1     2    13    12
 1.0753320650e-01     1     2    13    13
-9.9900000000e-08     1     3     2     1
-1.1087000000e-06     1     3     2     2
-2.0000000000e-10     1     3     2     4
 9.3300000000e-08     1     3     2     5
 5.4812100000e-05     1     3     2     6
 3.9205072600e-02     1     3     2     7
 1.7290742500e-02     1     3     2     8
-4.0796900000e-05     1     3     2     9
 1.6273500000e-05     1     3     2    10
-1.2669000000e-05     1     3     2    11
 3.5419622000e-03     1     3     2    12
 1.3180583400e-02     1     3     2    13
-3.6891547410e-01     1     3     3     1
-1.0349662550e-01     1     3     3     2
-4.8022000000e-06     1     3     3     4
-4.6415526000e-03     1     3     3     5
 1.9852842100e-02     1     3     3     6
-4.7533800000e-05     1     3     3     7
 4.4751100000e-05     1     3     3     8
 1.3270618400e-02     1     3     3     9
-2.4794568600e-02     1     3     3    10
 3.2565581800e-02     1     3     3    11
-2.2029220000e-04     1     3     3    12
 1.6778900000e-04     1     3     3    13
 3.6000000000e-09     1     3     4     1
 3.0000000000e-10     1     3     4     2
-1.1118000000e-06     1     3     4     4
-1.0000000000e-09     1     3     4     5
-1.7870000000e-07     1     3     4     6
-1.3678100000e-05     1     3     4     7
-3.4770000000e-07     1     3     4     8
 1.3113732000e-03     1     3     4     9
-3.2999049600e-02     1     3     4    10
-2.5636156900e-02     1     3     4    11
 2.1978900000e-04     1     3     4    12
-4.7958000000e-06     1     3     4    13
 2.3106000000e-06     1     3     5     1
 1.4210000000e-07     1     3     5     2
 1.0000000000e-10     1     3     5     4
-1.6209000000e-06     1     3     5     5
-2.2510800000e-05     1     3     5     6
-1.3262529200e-02     1     3     5     7
-5.8571187000e-03     1     3     5     8
-1.1142450000e-04     1     3     5     9
 8.3542900000e-05     1     3     5    10
-3.0366900000e-05     1     3     5    11
 1.1062923000e-02     1     3     5    12
 4.1133360300e-02     1     3     5    13
-1.0595990000e-04     1     3     6     1
-1.6520800000e-05     1     3     6     2
-7.0000000000e-10     1     3     6     4
 4.2110000000e-07     1     3     6     5
 1.6992100000e-05     1     3     6     6
-7.5278680000e-03     1     3     6     7
-3.3222514000e-03     1     3     6     8
 6.0442000000e-06     1     3     6     9
 1.1230300000e-05     1     3     6    10
 2.5267200000e-05     1     3     6    11
-6.5194100000e-04     1     3     6    12
-2.4298747000e-03     1     3     6    13
-7.5760011200e-02     1     3     7     1
-1.1908731400e-02     1     3     7     2
-6.7720000000e-07     1     3     7     4
 2.6437260000e-04     1     3     7     5
 1.7490808500e-02     1     3     7     6
-3.6069800000e-05     1     3     7     7
 6.1739600000e-05     1     3     7     8
-1.7625600000e-05     1     3     7     9
-2.1312129000e-03     1     3     7    10
 7.1553199000e-03     1     3     7    11
-5.1863800000e-05     1     3     7    12
 3.1810900000e-05     1     3     7    13
-3.3407065900e-02     1     3     8     1
-5.2491812000e-03     1     3     8     2
-4.7960000000e-07     1     3     8     4
 1.1556890000e-04     1     3     8     5
 7.7120858000e-03     1     3     8     6
-3.8758600000e-05     1     3     8     7
 1.5133700000e-05     1     3     8     8
 3.2080220000e-04     1     3     8     9
-6.9295171000e-03     1     3     8    10
-1.4084611000e-03     1     3     8    11
 1.9561000000e-05     1     3     8    12
 2.1848000000e-06     1     3     8    13
 8.6961300000e-05     1     3     9     1
 1.0461900000e-05     1     3     9     2
-2.4900000000e-08     1     3     9     4
-6.2825000000e-06     1     3     9     5
-1.3154000000e-05     1     3     9     6
-3.7688317000e-03     1     3     9     7
-1.9024097000e-03     1     3     9     8
-1.5714100000e-05     1     3     9     9
 9.3460000000e-07     1     3     9    10
-6.9200000000e-08     1     3     9    11
-1.0206348000e-03     1     3     9    12
-3.6250035000e-03     1     3     9    13
-3.5944400000e-05     1     3    10     1
-4.5889000000e-06     1     3    10     2
-4.8530000000e-07     1     3    10     4
 1.5534000000e-06     1     3    10     5
-1.6506100000e-05     1     3    10     6
 1.2739826000e-03     1     3    10     7
 8.4219537000e-03     1     3    10     8
 1.2972200000e-05     1     3    10     9
-1.9036000000e-06     1     3    10    10
 1.5788900000e-05     1     3    10    11
 1.7058051000e-03     1     3    10    12
 3.5970770000e-04     1     3    10    13
 3.1315600000e-05     1     3    11     1
 3.2530000000e-06     1     3    11     2
 3.6799999999e-08     1     3    11     4
-3.4890000000e-06     1     3    11     5
-2.9210300000e-05     1     3    11     6
-8.0099725000e-03     1     3    11     7
 2.6887327000e-03     1     3    11     8
-9.6055000000e-06     1     3    11     9
-1.3075300000e-05     1     3    11    10
 7.7830000000e-07     1     3    11    11
 8.4397840000e-04     1     3    11    12
-1.5097565000e-03     1     3    11    13
-7.8299954000e-03     1     3    12     1
-9.6431390000e-04     1     3    12     2
 1.3733000000e-06     1     3    12     4
 5.5949640000e-04     1     3    12     5
 7.2079100000e-04     1     3    12     6
 5.6919100000e-05     1     3    12     7
-1.8934800000e-05     1     3    12     8
 2.9270117000e-03     1     3    12     9
-1.2617500000e-03     1     3    12    10
-4.9437340000e-04     1     3    12    11
-5.4867000000e-06     1     3    12    12
-5.0845000000e-06     1     3    12    13
-2.9136117700e-02     1     3    13     1
-3.5917075000e-03     1     3    13     2
 3.3633000000e-06     1     3    13     4
 2.0715010000e-03     1     3    13     5
 2.6812821000e-03     1     3    13     6
-4.2384300000e-05     1     3    13     7
-2.7883000000e-06     1     3    13     8
 1.0631695900e-02     1     3    13     9
-3.5044740000e-04     1     3    13    10
 1.5475885000e-03     1     3    13    11
-9.8667000000e-06     1     3    13    12
 1.9265600000e-05     1     3    13    13
 1.3684000000e-06     1     4     2     1
 5.9860000000e-06     1     4     2     2
 2.0000000000e-10     1     4     2     3
-1.3522000000e-06     1     4     2     5
-1.5264930000e-04     1     4     2     6
-1.7291851400e-02     1     4     2     7
 3.9205493900e-02     1     4     2     8
-3.7100500000e-05     1     4     2     9
-8.2074000000e-06     1     4     2    10
 1.2984610000e-04     1     4     2    11
 1.3180251000e-02     1     4     2    12
-3.5379044000e-03     1     4     2    13
 3.6000000000e-09     1     4     3     1
 5.0000000000e-10     1     4     3     2
 4.8022000000e-06     1     4     3     3
-1.1000000000e-09     1     4     3     5
-1.7800000000e-07     1     4     3     6
-1.3000900000e-05     1     4     3     7
 1.3190000000e-07     1     4     3     8
 1.3113981000e-03     1     4     3     9
-3.2998564300e-02     1     4     3    10
-2.5636193700e-02     1     4     3    11
 2.1841570000e-04     1     4     3    12
-8.1591000000e-06     1     4     3    13
-3.6892291390e-01     1     4     4     1
-1.0349924600e-01     1     4     4     2
 1.1118000000e-06     1     4     4     3
-4.6410779000e-03     1     4     4     5
 1.9856259400e-02     1     4     4     6
-3.1425800000e-05     1     4     4     7
 2.4695000000e-05     1     4     4     8
 1.1652900900e-02     1     4     4     9
 2.5675850100e-02     1     4     4    10
-3.2472754400e-02     1     4     4    11
 4.3501010000e-04     1     4     4    12
-1.6195910000e-04     1     4     4    13
-2.2416000000e-05     1     4     5     1
-1.6752000000e-06     1     4     5     2
-1.0000000000e-10     1     4     5     3
 9.2940000000e-06     1     4     5     5
 7.5117800000e-05     1     4     5     6
 5.8532449000e-03     1     4     5     7
-1.3263393300e-02     1     4     5     8
-1.4286170000e-04     1     4     5     9
-6.1890700000e-05     1     4     5    10
 4.1960590000e-04     1     4     5    11
 4.1131318200e-02     1     4     5    12
-1.1063778900e-02     1     4     5    13
 2.9234540000e-04     1     4     6     1
 4.5534400000e-05     1     4     6     2
 7.0000000000e-10     1     4     6     3
-2.1109000000e-06     1     4     6     5
-4.7015400000e-05     1     4     6     6
 3.3228654000e-03     1     4     6     7
-7.5302958000e-03     1     4     6     8
 2.1030400000e-05     1     4     6     9
-2.2843300000e-05     1     4     6    10
-5.1769000000e-06     1     4     6    11
-2.4304583000e-03     1     4     6    12
 6.5079740000e-04     1     4     6    13
 3.3409082500e-02     1     4     7     1
 5.2489139000e-03     1     4     7     2
 6.7720000000e-07     1     4     7     3
-1.1558030000e-04     1     4     7     5
-7.7121134000e-03     1     4     7     6
 2.3891300000e-05     1     4     7     7
-6.5733000000e-06     1     4     7     8
 3.9419560000e-04     1     4     7     9
-6.9111166000e-03     1     4     7    10
-1.4091875000e-03     1     4     7    11
 3.8905000000e-06     1     4     7    12
 1.9337400000e-05     1     4     7    13
-7.5758447500e-02     1     4     8     1
-1.1907400200e-02     1     4     8     2
 4.7960000000e-07     1     4     8     3
 2.6392620000e-04     1     4     8     5
 1.7488751400e-02     1     4     8     6
-4.1830600000e-05     1     4     8     7
 4.5182100000e-05     1     4     8     8
-1.4869750000e-04     1     4     8     9
 2.0839442000e-03     1     4     8    10
-7.1562196000e-03     1     4     8    11
 1.0495270000e-04     1     4     8    12
-3.7599000000e-05     1     4     8    13
 9.2011200000e-05     1     4     9     1
 1.7583700000e-05     1     4     9     2
 2.4900000000e-08     1     4     9     3
-3.7746000000e-06     1     4     9     5
 8.5843000000e-06     1     4     9     6
 1.4077131000e-03     1     4     9     7
-3.7457745000e-03     1     4     9     8
-1.3638900000e-05     1     4     9     9
 1.7090000000e-06     1     4     9    10
-1.9048300000e-05     1     4     9    11
-3.6094970000e-03     1     4     9    12
 9.2494990000e-04     1     4     9    13
 1.8282400000e-05     1     4    10     1
 2.1724000000e-06     1     4    10     2
 4.8530000000e-07     1     4    10     3
-4.0540000000e-07     1     4    10     5
 2.5370800000e-05     1     4    10     6
 8.5529306000e-03     1     4    10     7
-1.5731090000e-03     1     4    10     8
-1.6254900000e-05     1     4    10     9
 1.1638300000e-05     1     4    10    10
-1.1186700000e-05     1     4    10    11
-6.6959690000e-04     1     4    10    12
 1.7887276000e-03     1     4    10    13
-2.8784500000e-04     1     4    11     1
-3.4969700000e-05     1     4    11     2
-3.6799999999e-08     1     4    11     3
 1.7212000000e-05     1     4    11     5
 1.3590400000e-05     1     4    11     6
 2.7014075000e-03     1     4    11     7
 7.9807834000e-03     1     4    11     8
 1.0678000000e-04     1     4    11     9
 1.5556300000e-05     1     4    11    10
 1.1058600000e-05     1     4    11    11
 1.4777318000e-03     1     4    11    12
 8.5356450000e-04     1     4    11    13
-2.9134831400e-02     1     4    12     1
-3.5913645000e-03     1     4    12     2
-1.3733000000e-06     1     4    12     3
 2.0712773000e-03     1     4    12     5
 2.6812450000e-03     1     4    12     6
-2.2263700000e-05     1     4    12     7
-6.3530500000e-05     1     4    12     8
 1.0576788000e-02     1     4    12     9
 1.0540882000e-03     1     4    12    10
-1.4783766000e-03     1     4    12    11
 2.5977000000e-06     1     4    12    12
 1.7033500000e-05     1     4    12    13
 7.8221894000e-03     1     4    13     1
 9.6309660000e-04     1     4    13     2
-3.3633000000e-06     1     4    13     3
-5.5945570000e-04     1     4    13     5
-7.1920410000e-04     1     4    13     6
-1.7194000000e-06     1     4    13     7
 1.5457700000e-05     1     4    13     8
-2.7751022000e-03     1     4    13     9
-1.4510176000e-03     1     4    13    10
-5.1366850000e-04     1     4    13    11
 2.1312000000e-06     1     4    13    12
 3.7670000000e-06     1     4    13    13
 2.8483474000e-03     1     5     2     1
 5.6071586000e-03     1     5     2     2
-9.3300000000e-08     1     5     2     3
 1.3522000000e-06     1     5     2     4
 7.3752123000e-03     1     5     2     6
-1.0528500000e-05     1     5     2     7
-1.6771000000e-06     1     5     2     8
-3.7068644900e-02     1     5     2     9
-1.3413893000e-03     1     5     2    10
-1.3470590000e-04     1     5     2    11
-8.1325400000e-05     1     5     2    12
-7.6957600000e-05     1     5     2    13
 2.3106000000e-06     1     5     3     1
 4.8800000000e-08     1     5     3     2
 4.6415526000e-03     1     5     3     3
 1.1000000000e-09     1     5     3     4
-2.2931900000e-05     1     5     3     6
-1.3526901800e-02     1     5     3     7
-5.9726876000e-03     1     5     3     8
-1.0514200000e-04     1     5     3     9
 8.1989500000e-05     1     5     3    10
-2.6877900000e-05     1     5     3    11
 1.0503426600e-02     1     5     3    12
 3.9061859300e-02     1     5     3    13
-2.2416000000e-05     1     5     4     1
-3.2300000000e-07     1     5     4     2
 1.0000000000e-09     1     5     4     3
 4.6410779000e-03     1     5     4     4
 7.7228700000e-05     1     5     4     6
 5.9688252000e-03     1     5     4     7
-1.3527319500e-02     1     5     4     8
-1.3908710000e-04     1     5     4     9
-6.1485300000e-05     1     5     4    10
 4.0239390000e-04     1     5     4    11
 3.9060040900e-02     1     5     4    12
-1.0504323200e-02     1     5     4    13
-4.0104635250e-01     1     5     5     1
-1.1011562520e-01     1     5     5     2
 1.6209000000e-06     1     5     5     3
-9.2940000000e-06     1     5     5     4
 3.3695263300e-02     1     5     5     6
-1.2479320000e-04     1     5     5     7
 1.4942780000e-04     1     5     5     8
-2.1434596600e-02     1     5     5     9
-7.7540140000e-04     1     5     5    10
-8.4267100000e-05     1     5     5    11
-2.5828160000e-04     1     5     5    12
 1.6803000000e-05     1     5     5    13
-1.8063488900e-02     1     5     6     1
-2.5749299000e-03     1     5     6     2
-4.2110000000e-07     1     5     6     3
 2.1109000000e-06     1     5     6     4
 4.4556714000e-03     1     5     6     6
 1.1066000000e-05     1     5     6     7
-1.1052900000e-05     1     5     6     8
 1.8787959200e-02     1     5     6     9
 5.8751280000e-04     1     5     6    10
 5.8540200000e-05     1     5     6    11
-5.6616000000e-06     1     5     6    12
 6.4476800000e-05     1     5     6    13
 3.6638700000e-05     1     5     7     1
 7.4687000000e-06     1     5     7     2
-2.6437260000e-04     1     5     7     3
 1.1558030000e-04     1     5     7     4
 1.1962600000e-05     1     5     7     6
 6.9634309000e-03     1     5     7     7
-2.1550000000e-06     1     5     7     8
-7.2508900000e-05     1     5     7     9
 1.8506400000e-05     1     5     7    10
-4.9321000000e-05     1     5     7    11
-1.7393479000e-03     1     5     7    12
 1.1342424200e-02     1     5     7    13
-1.6575300000e-05     1     5     8     1
-5.5670000000e-06     1     5     8     2
-1.1556890000e-04     1     5     8     3
-2.6392620000e-04     1     5     8     4
-1.8236200000e-05     1     5     8     6
 2.2419000000e-06     1     5     8     7
 6.9630540000e-03     1     5     8     8
 1.7405000000e-05     1     5     8     9
-1.7098000000e-06     1     5     8    10
 8.5994000000e-05     1     5     8    11
 1.1339991500e-02     1     5     8    12
 1.7409370000e-03     1     5     8    13
 8.0652446300e-02     1     5     9     1
 1.5527594100e-02     1     5     9     2
 6.2825000000e-06     1     5     9     3
 3.7746000000e-06     1     5     9     4
-8.6127523000e-03     1     5     9     6
 3.0945600000e-05     1     5     9     7
-2.8046000000e-06     1     5     9     8
 3.5556890000e-03     1     5     9     9
-1.9864590000e-04     1     5     9    10
-1.9301100000e-05     1     5     9    11
 2.4897100000e-05     1     5     9    12
-1.6238700000e-05     1     5     9    13
 2.9561817000e-03     1     5    10     1
 5.5863990000e-04     1     5    10     2
-1.5534000000e-06     1     5    10     3
 4.0540000000e-07     1     5    10     4
-3.8154500000e-04     1     5    10     6
-1.9069000000e-05     1     5    10     7
 3.6321000000e-06     1     5    10     8
-1.9124900000e-04     1     5    10     9
 8.5211961000e-03     1     5    10    10
-7.4270000000e-07     1     5    10    11
 3.0190000000e-06     1     5    10    12
-5.4638000000e-06     1     5    10    13
 2.9737480000e-04     1     5    11     1
 5.6179900000e-05     1     5    11     2
 3.4890000000e-06     1     5    11     3
-1.7212000000e-05     1     5    11     4
-3.8068200000e-05     1     5    11     6
 3.2683000000e-05     1     5    11     7
-6.7983900000e-05     1     5    11     8
-1.9940600000e-05     1     5    11     9
-8.2490000000e-07     1     5    11    10
 8.5291830000e-03     1     5    11    11
-2.4090000000e-05     1     5    11    12
 1.0510100000e-05     1     5    11    13
 1.8833140000e-04     1     5    12     1
 3.3415800000e-05     1     5    12     2
-5.5949640000e-04     1     5    12     3
-2.0712773000e-03     1     5    12     4
 1.3600000000e-07     1     5    12     6
 9.8762840000e-04     1     5    12     7
-6.3817140000e-03     1     5    12     8
-3.3301200000e-05     1     5    12     9
-1.6633000000e-06     1     5    12    10
-2.3618200000e-05     1     5    12    11
 5.9514184000e-03     1     5    12    12
-2.4884000000e-06     1     5    12    13
 1.6744100000e-04     1     5    13     1
 3.3037800000e-05     1     5    13     2
-2.0715010000e-03     1     5    13     3
 5.5945570000e-04     1     5    13     4