&FCI NORB= 13,NELEC=  2,MS2=0,
 ORBSYM=1,1,1,1,1,1,1,1,1,1,1,1,1
 ISYM=1,
&END
 2.0250950950e-01     1     1     2     2
-2.3271627000e-03     1     1     2     3
-1.4769500000e-05     1     1     2     4
 7.9490000000e-06     1     1     2     5
-6.1394865500e-02     1     1     2     6
-5.8846620000e-04     1     1     2     7
-1.1109660000e-04     1     1     2     8
-2.5108021500e-02     1     1     2     9
 1.0775711000e-03     1     1     2    10
 1.6067000000e-06     1     1     2    11
 5.2841000000e-06     1     1     2    12
 4.2920400000e-05     1     1     2    13
-2.3271627000e-03     1     1     3     2
 2.8904032380e-01     1     1     3     3
-8.2090000000e-07     1     1     3     4
 1.2970000000e-06     1     1     3     5
-2.8861531000e-03     1     1     3     6
 1.5705339000e-03     1     1     3     7
 2.8003720000e-04     1     1     3     8
 6.3531869200e-02     1     1     3     9
-3.5448838800e-02     1     1     3    10
 2.5633300000e-05     1     1     3    11
-1.5316100000e-04     1     1     3    12
-2.2426800000e-04     1     1     3    13
-1.4769500000e-05     1     1     4     2
-8.2090000000e-07     1     1     4     3
 2.9280534130e-01     1     1     4     4
 2.0200000000e-08     1     1     4     5
-7.4092000000e-06     1     1     4     6
-1.7205330600e-02     1     1     4     7
-6.0312285300e-02     1     1     4     8
 7.0863300000e-04     1     1     4     9
 2.1608870000e-04     1     1     4    10
 6.6828074000e-03     1     1     4    11
-3.6187907400e-02     1     1     4    12
 2.3210339000e-03     1     1     4    13
 7.9490000000e-06     1     1     5     2
 1.2970000000e-06     1     1     5     3
 2.0200000000e-08     1     1     5     4
 2.9278183670e-01     1     1     5     5
 6.1918000000e-06     1     1     5     6
 6.0301826400e-02     1     1     5     7
-1.7219707800e-02     1     1     5     8
-1.4517399000e-03     1     1     5     9
-1.5453860000e-04     1     1     5    10
 3.6254451200e-02     1     1     5    11
 6.7395847000e-03     1     1     5    12
 2.8403950000e-04     1     1     5    13
-6.1394865500e-02     1     1     6     2
-2.8861531000e-03     1     1     6     3
-7.4092000000e-06     1     1     6     4
 6.1918000000e-06     1     1     6     5
 3.0522724840e-01     1     1     6     6
-2.6873340000e-04     1     1     6     7
-5.0752300000e-05     1     1     6     8
-1.1609731900e-02     1     1     6     9
 2.6289160400e-02     1     1     6    10
 3.7633130000e-04     1     1     6    11
 4.2116040000e-04     1     1     6    12
 1.2340705000e-03     1     1     6    13
-5.8846620000e-04     1     1     7     2
 1.5705339000e-03     1     1     7     3
-1.7205330600e-02     1     1     7     4
 6.0301826400e-02     1     1     7     5
-2.6873340000e-04     1     1     7     6
 3.0883354460e-01     1     1     7     7
-7.0005000000e-06     1     1     7     8
 3.2251600000e-05     1     1     7     9
-5.1014560000e-04     1     1     7    10
 1.4831307200e-02     1     1     7    11
 7.3591222000e-03     1     1     7    12
-1.5549750000e-04     1     1     7    13
-1.1109660000e-04     1     1     8     2
 2.8003720000e-04     1     1     8     3
-6.0312285300e-02     1     1     8     4
-1.7219707800e-02     1     1     8     5
-5.0752300000e-05     1     1     8     6
-7.0005000000e-06     1     1     8     7
 3.0882171810e-01     1     1     8     8
 6.3175000000e-06     1     1     8     9
-1.5365560000e-04     1     1     8    10
-7.3534805000e-03     1     1     8    11
 1.4786567500e-02     1     1     8    12
-9.9401360000e-04     1     1     8    13
-2.5108021500e-02     1     1     9     2
 6.3531869200e-02     1     1     9     3
 7.0863300000e-04     1     1     9     4
-1.4517399000e-03     1     1     9     5
-1.1609731900e-02     1     1     9     6
 3.2251600000e-05     1     1     9     7
 6.3175000000e-06     1     1     9     8
 3.1421112040e-01     1     1     9     9
-1.6424005700e-02     1     1     9    10
-3.7406080000e-04     1     1     9    11
-3.7862590000e-04     1     1     9    12
-1.7517450000e-04     1     1     9    13
 1.0775711000e-03     1     1    10     2
-3.5448838800e-02     1     1    10     3
 2.1608870000e-04     1     1    10     4
-1.5453860000e-04     1     1    10     5
 2.6289160400e-02     1     1    10     6
-5.1014560000e-04     1     1    10     7
-1.5365560000e-04     1     1    10     8
-1.6424005700e-02     1     1    10     9
 3.4016113520e-01     1     1    10    10
-3.3428900000e-05     1     1    10    11
-2.5132000000e-05     1     1    10    12
 3.1496400000e-05     1     1    10    13
 1.6067000000e-06     1     1    11     2
 2.5633300000e-05     1     1    11     3
 6.6828074000e-03     1     1    11     4
 3.6254451200e-02     1     1    11     5
 3.7633130000e-04     1     1    11     6
 1.4831307200e-02     1     1    11     7
-7.3534805000e-03     1     1    11     8
-3.7406080000e-04     1     1    11     9
-3.3428900000e-05     1     1    11    10
 3.4068913440e-01     1     1    11    11
 1.0042400000e-05     1     1    11    12
 1.0821800000e-04     1     1    11    13
 5.2841000000e-06     1     1    12     2
-1.5316100000e-04     1     1    12     3
-3.6187907400e-02     1     1    12     4
 6.7395847000e-03     1     1    12     5
 4.2116040000e-04     1     1    12     6
 7.3591222000e-03     1     1    12     7
 1.4786567500e-02     1     1    12     8
-3.7862590000e-04     1     1    12     9
-2.5132000000e-05     1     1    12    10
 1.0042400000e-05     1     1    12    11
 3.4066921390e-01     1     1    12    12
-3.4329390000e-04     1     1    12    13
 4.2920400000e-05     1     1    13     2
-2.2426800000e-04     1     1    13     3
 2.3210339000e-03     1     1    13     4
 2.8403950000e-04     1     1    13     5
 1.2340705000e-03     1     1    13     6
-1.5549750000e-04     1     1    13     7
-9.9401360000e-04     1     1    13     8
-1.7517450000e-04     1     1    13     9
 3.1496400000e-05     1     1    13    10
 1.0821800000e-04     1     1    13    11
-3.4329390000e-04     1     1    13    12
 3.3165136290e-01     1     1    13    13
-2.0250950950e-01     1     2     2     1
-2.7973131800e-02     1     2     2     3
-3.1213000000e-06     1     2     2     4
 4.2511600000e-05     1     2     2     5
 4.2560935300e-02     1     2     2     6
 1.4982620000e-04     1     2     2     7
 2.6568700000e-05     1     2     2     8
 6.5231826000e-03     1     2     2     9
 2.6969621000e-03     1     2     2    10
 2.8620400000e-05     1     2     2    11
 3.3552600000e-05     1     2     2    12
 8.4404400000e-05     1     2     2    13
 2.3271627000e-03     1     2     3     1
-8.4480739700e-02     1     2     3     3
-2.8629000000e-06     1     2     3     4
 5.2562000000e-06     1     2     3     5
-6.5180063000e-03     1     2     3     6
-1.2559088000e-03     1     2     3     7
-2.2342910000e-04     1     2     3     8
-5.0376322600e-02     1     2     3     9
 6.2500991000e-03     1     2     3    10
-5.1810100000e-05     1     2     3    11
-6.6776000000e-06     1     2     3    12
-3.8901000000e-05     1     2     3    13
 1.4769500000e-05     1     2     4     1
-1.6705000000e-06     1     2     4     3
-8.3315519400e-02     1     2     4     4
-6.1000000000e-09     1     2     4     5
 4.6053000000e-06     1     2     4     6
 1.4122318400e-02     1     2     4     7
 4.9506147600e-02     1     2     4     8
-5.7505150000e-04     1     2     4     9
-7.0317700000e-05     1     2     4    10
-1.7694267000e-03     1     2     4    11
 9.5822922000e-03     1     2     4    12
-6.0947030000e-04     1     2     4    13
-7.9490000000e-06     1     2     5     1
 5.1409000000e-06     1     2     5     3
-1.0900000000e-08     1     2     5     4
-8.3302307800e-02     1     2     5     5
 8.6523000000e-06     1     2     5     6
-4.9496098800e-02     1     2     5     7
 1.4133473600e-02     1     2     5     8
 1.1807665000e-03     1     2     5     9
 6.4369700000e-05     1     2     5    10
-9.5946413000e-03     1     2     5    11
-1.7838515000e-03     1     2     5    12
-8.1825700000e-05     1     2     5    13
 6.1394865500e-02     1     2     6     1
-1.4692539000e-03     1     2     6     3
 5.9947000000e-06     1     2     6     4
 5.0190000000e-07     1     2     6     5
-7.3860321700e-02     1     2     6     6
 4.0044810000e-04     1     2     6     7
 7.4544000000e-05     1     2     6     8
 1.7698030400e-02     1     2     6     9
-1.9219981600e-02     1     2     6    10
-2.6365760000e-04     1     2     6    11
-3.0097800000e-04     1     2     6    12
-8.6930990000e-04     1     2     6    13
 5.8846620000e-04     1     2     7     1
-7.2570850000e-04     1     2     7     3
 8.4409608000e-03     1     2     7     4
-2.9589131700e-02     1     2     7     5
 1.9910400000e-04     1     2     7     6
-7.8686428400e-02     1     2     7     7
 5.5753000000e-06     1     2     7     8
-7.6800000000e-08     1     2     7     9
 2.9888490000e-04     1     2     7    10
-1.0497694500e-02     1     2     7    11
-5.2106091000e-03     1     2     7    12
 1.0846380000e-04     1     2     7    13
 1.1109660000e-04     1     2     8     1
-1.2849700000e-04     1     2     8     3
 2.9593609200e-02     1     2     8     4
 8.4480808000e-03     1     2     8     5
 3.8209500000e-05     1     2     8     6
 4.9156000000e-06     1     2     8     7
-7.8677950300e-02     1     2     8     8
 6.7250000000e-07     1     2     8     9
 9.7366900000e-05     1     2     8    10
 5.2053338000e-03     1     2     8    11
-1.0468080200e-02     1     2     8    12
 7.2015740000e-04     1     2     8    13
 2.5108021500e-02     1     2     9     1
-2.9055938600e-02     1     2     9     3
-3.4349490000e-04     1     2     9     4
 7.0483730000e-04     1     2     9     5
 8.9463605000e-03     1     2     9     6
 3.6400000000e-08     1     2     9     7
 1.1212000000e-06     1     2     9     8
-8.1912878900e-02     1     2     9     9
 9.0535181000e-03     1     2     9    10
 2.2252860000e-04     1     2     9    11
 2.2491300000e-04     1     2     9    12
-3.6044100000e-05     1     2     9    13
-1.0775711000e-03     1     2    10     1
 3.7903440000e-03     1     2    10     3
-4.5653600000e-05     1     2    10     4
 4.1139000000e-05     1     2    10     5
-1.5067394500e-02     1     2    10     6
 3.9731690000e-04     1     2    10     7
 1.2412120000e-04     1     2    10     8
 1.2629413000e-02     1     2    10     9
-1.0166772460e-01     1     2    10    10
 4.0136200000e-05     1     2    10    11
 3.5309600000e-05     1     2    10    12
-7.7642000000e-06     1     2    10    13
-1.6067000000e-06     1     2    11     1
-3.8392600000e-05     1     2    11     3
-1.1363790000e-03     1     2    11     4
-6.1627277000e-03     1     2    11     5
-2.1714390000e-04     1     2    11     6
-1.3041247700e-02     1     2    11     7
 6.4673607000e-03     1     2    11     8
 2.9189940000e-04     1     2    11     9
 3.6134600000e-05     1     2    11    10
-1.0356207720e-01     1     2    11    11
-1.1421900000e-05     1     2    11    12
-1.2333960000e-04     1     2    11    13
-5.2841000000e-06     1     2    12     1
-9.2327000000e-06     1     2    12     3
 6.1551361000e-03     1     2    12     4
-1.1455087000e-03     1     2    12     5
-2.4462470000e-04     1     2    12     6
-6.4741173000e-03     1     2    12     7
-1.3005435400e-02     1     2    12     8
 2.9165870000e-04     1     2    12     9
 3.2025600000e-05     1     2    12    10
-1.1122800000e-05     1     2    12    11
-1.0354224160e-01     1     2    12    12
 3.9056090000e-04     1     2    12    13
-4.2920400000e-05     1     2    13     1
-4.6309600000e-05     1     2    13     3
-3.9197160000e-04     1     2    13     4
-5.2270100000e-05     1     2    13     5
-7.0718720000e-04     1     2    13     6
 1.3878010000e-04     1     2    13     7
 8.9838450000e-04     1     2    13     8
 1.9749000000e-05     1     2    13     9
-1.5590400000e-05     1     2    13    10
-1.2202390000e-04     1     2    13    11
 3.8960630000e-04     1     2    13    12
-9.5039436700e-02     1     2    13    13
 2.3271627000e-03     1     3     2     1
 2.7973131800e-02     1     3     2     2
-1.1924000000e-06     1     3     2     4
 1.1530000000e-07     1     3     2     5
-5.0487524000e-03     1     3     2     6
-5.3020030000e-04     1     3     2     7
-9.4932100000e-05     1     3     2     8
-2.1320384000e-02     1     3     2     9
 2.4597551000e-03     1     3     2    10
-1.3417500000e-05     1     3     2    11
 2.5551000000e-06     1     3     2    12
 7.4086000000e-06     1     3     2    13
-2.8904032380e-01     1     3     3     1
 8.4480739700e-02     1     3     3     2
-2.2422000000e-05     1     3     3     4
 6.3208600000e-05     1     3     3     5
-2.9752898600e-02     1     3     3     6
 2.5445030000e-04     1     3     3     7
 5.0783800000e-05     1     3     3     8
 1.1561618300e-02     1     3     3     9
-4.1898701100e-02     1     3     3    10
-4.2535800000e-05     1     3     3    11
-2.4798150000e-04     1     3     3    12
-5.2688130000e-04     1     3     3    13
 8.2090000000e-07     1     3     4     1
 1.6705000000e-06     1     3     4     2
 3.8924448200e-02     1     3     4     4
-1.2800000000e-08     1     3     4     5
-1.8554000000e-06     1     3     4     6
-6.8393980000e-04     1     3     4     7
-2.3978032000e-03     1     3     4     8
 3.8890000000e-05     1     3     4     9
 1.7496880000e-04     1     3     4    10
 6.2789980000e-03     1     3     4    11
-3.3998869100e-02     1     3     4    12
 2.1764650000e-03     1     3     4    13
-1.2970000000e-06     1     3     5     1
-5.1409000000e-06     1     3     5     2
-1.7200000000e-08     1     3     5     4
 3.8922256300e-02     1     3     5     5
 2.1154000000e-06     1     3     5     6
 2.4016726000e-03     1     3     5     7
-6.8638450000e-04     1     3     5     8
-7.3515500000e-05     1     3     5     9
-8.1342100000e-05     1     3     5    10
 3.4070095200e-02     1     3     5    11
 6.3286027000e-03     1     3     5    12
 2.0470430000e-04     1     3     5    13
 2.8861531000e-03     1     3     6     1
 1.4692539000e-03     1     3     6     2
-1.0903000000e-06     1     3     6     4
 1.3030000000e-07     1     3     6     5
 3.7754042200e-02     1     3     6     6
 3.7884920000e-04     1     3     6     7
 6.6141500000e-05     1     3     6     8
 1.5692753200e-02     1     3     6     9
 1.1082677000e-03     1     3     6    10
 6.9327300000e-05     1     3     6    11
 5.8510900000e-05     1     3     6    12
 1.7993170000e-04     1     3     6    13
-1.5705339000e-03     1     3     7     1
 7.2570850000e-04     1     3     7     2
-8.3332750000e-04     1     3     7     4
 2.9200937000e-03     1     3     7     5
-2.4996340000e-04     1     3     7     6
 4.0809331900e-02     1     3     7     7
-4.4860000000e-07     1     3     7     8
-3.2498600000e-05     1     3     7     9
-4.9010540000e-04     1     3     7    10
 1.0128846300e-02     1     3     7    11
 5.0266381000e-03     1     3     7    12
-1.2578360000e-04     1     3     7    13
-2.8003720000e-04     1     3     8     1
 1.2849700000e-04     1     3     8     2
-2.9200583000e-03     1     3     8     4
-8.3401290000e-04     1     3     8     5
-4.4760300000e-05     1     3     8     6
-4.2620000000e-07     1     3     8     7
 4.0810435400e-02     1     3     8     8
-5.9458000000e-06     1     3     8     9
-1.2674710000e-04     1     3     8    10
-5.0244502000e-03     1     3     8    11
 1.0100615300e-02     1     3     8    12
-6.6977680000e-04     1     3     8    13
-6.3531869200e-02     1     3     9     1
 2.9055938600e-02     1     3     9     2
 3.1341400000e-05     1     3     9     4
-6.4191500000e-05     1     3     9     5
-9.6616750000e-03     1     3     9     6
-3.1041000000e-05     1     3     9     7
-3.8741000000e-06     1     3     9     8
 3.9808273400e-02     1     3     9     9
-1.7164989000e-02     1     3     9    10
-3.1017390000e-04     1     3     9    11
-3.1896240000e-04     1     3     9    12
-3.8865310000e-04     1     3     9    13
 3.5448838800e-02     1     3    10     1
-3.7903440000e-03     1     3    10     2
 9.4598000000e-06     1     3    10     4
-8.5943000000e-06     1     3    10     5
 1.6126783000e-03     1     3    10     6
-6.1377800000e-05     1     3    10     7
-1.1722300000e-05     1     3    10     8
-1.6376557000e-03     1     3    10     9
 3.9407768300e-02     1     3    10    10
 1.4159300000e-05     1     3    10    11
 2.0019100000e-05     1     3    10    12
 8.1855900000e-05     1     3    10    13
-2.5633300000e-05     1     3    11     1
 3.8392600000e-05     1     3    11     2
 2.8192900000e-04     1     3    11     4
 1.5374765000e-03     1     3    11     5
 2.2228800000e-05     1     3    11     6
 1.9107620000e-04     1     3    11     7
-9.4447500000e-05     1     3    11     8
-2.4493100000e-05     1     3    11     9
 1.3985000000e-05     1     3    11    10
 3.7093280800e-02     1     3    11    11
-5.6210000000e-07     1     3    11    12
-1.8114100000e-05     1     3    11    13
 1.5316100000e-04     1     3    12     1
 9.2327000000e-06     1     3    12     2
-1.5346800000e-03     1     3    12     4
 2.8434340000e-04     1     3    12     5
 2.1983500000e-05     1     3    12     6
 9.4292000000e-05     1     3    12     7
 1.9174250000e-04     1     3    12     8
-2.7070400000e-05     1     3    12     9
 1.8523900000e-05     1     3    12    10
-1.3064000000e-06     1     3    12    11
 3.7094346600e-02     1     3    12    12
 4.6492000000e-05     1     3    12    13
 2.2426800000e-04     1     3    13     1
 4.6309600000e-05     1     3    13     2
 1.0006350000e-04     1     3    13     4
 1.1788600000e-05     1     3    13     5
 8.6876600000e-05     1     3    13     6
 7.4539000000e-06     1     3    13     7
 9.6812000000e-06     1     3    13     8
-9.9366100000e-05     1     3    13     9
 4.0617600000e-05     1     3    13    10
-5.7131000000e-06     1     3    13    11
 4.8441300000e-05     1     3    13    12
 3.7115244300e-02     1     3    13    13
 1.4769500000e-05     1     4     2     1
 3.1213000000e-06     1     4     2     2
 1.1924000000e-06     1     4     2     3
 4.8000000000e-09     1     4     2     5
-1.3894000000e-06     1     4     2     6
 5.6813576000e-03     1     4     2     7
 1.9912538400e-02     1     4     2     8
-2.3155660000e-04     1     4     2     9
-2.4664100000e-05     1     4     2    10
-6.3304770000e-04     1     4     2    11
 3.4271561000e-03     1     4     2    12
-2.1749870000e-04     1     4     2    13
 8.2090000000e-07     1     4     3     1
 2.8629000000e-06     1     4     3     2
 2.2422000000e-05     1     4     3     3
 4.4000000000e-09     1     4     3     5
-7.6510000000e-07     1     4     3     6
 1.4938770000e-04     1     4     3     7
 5.2225510000e-04     1     4     3     8
 7.5486000000e-06     1     4     3     9
 1.6550900000e-04     1     4     3    10
 5.9970690000e-03     1     4     3    11
-3.2464189100e-02     1     4     3    12
 2.0764015000e-03     1     4     3    13
-2.9280534130e-01     1     4     4     1
 8.3315519400e-02     1     4     4     2
-3.8924448200e-02     1     4     4     3
 6.3743400000e-05     1     4     4     5
-2.9519905400e-02     1     4     4     6
 2.0075120000e-04     1     4     4     7
 3.5809600000e-05     1     4     4     8
 8.6307127000e-03     1     4     4     9
 1.3692918800e-02     1     4     4    10
-9.2894890000e-04     1     4     4    11
 2.1793629000e-03     1     4     4    12
 2.7329754600e-02     1     4     4    13
-2.0200000000e-08     1     4     5     1
 1.0900000000e-08     1     4     5     2
 1.7200000000e-08     1     4     5     3
 2.2650300000e-05     1     4     5     5
-8.0000000000e-10     1     4     5     6
 3.5693000000e-06     1     4     5     7
-1.2828000000e-06     1     4     5     8
-7.5800000000e-07     1     4     5     9
-2.8487560000e-04     1     4     5    10
 4.4506670000e-04     1     4     5    11
 1.6467410000e-04     1     4     5    12
 1.6093046100e-02     1     4     5    13
 7.4092000000e-06     1     4     6     1
-5.9947000000e-06     1     4     6     2
 1.0903000000e-06     1     4     6     3
 5.7000000000e-09     1     4     6     5
 2.2949600000e-05     1     4     6     6
-4.5509308000e-03     1     4     6     7
-1.5951032300e-02     1     4     6     8
 1.9239620000e-04     1     4     6     9
 3.5607600000e-05     1     4     6    10
 8.1186490000e-04     1     4     6    11
-4.4001536000e-03     1     4     6    12
 2.6537470000e-04     1     4     6    13
 1.7205330600e-02     1     4     7     1
-8.4409608000e-03     1     4     7     2
 8.3332750000e-04     1     4     7     3
 1.1390000000e-06     1     4     7     5
 2.8577864000e-03     1     4     7     6
 2.7133900000e-05     1     4     7     7
-7.9664000000e-06     1     4     7     8
 2.3888000000e-04     1     4     7     9
 6.1612590000e-04     1     4     7    10
 2.3624770000e-04     1     4     7    11
-2.7027930000e-04     1     4     7    12
 1.7898981000e-03     1     4     7    13
 6.0312285300e-02     1     4     8     1
-2.9593609200e-02     1     4     8     2
 2.9200583000e-03     1     4     8     3
-5.8755000000e-06     1     4     8     5
 1.0020043400e-02     1     4     8     6
 2.0287900000e-05     1     4     8     7
 2.2822700000e-05     1     4     8     8
 8.3674990000e-04     1     4     8     9
 2.4275788000e-03     1     4     8    10
 2.9948770000e-04     1     4     8    11
-4.8749940000e-04     1     4     8    12
-7.0978426000e-03     1     4     8    13
-7.0863300000e-04     1     4     9     1
 3.4349490000e-04     1     4     9     2
-3.1341400000e-05     1     4     9     3
-1.0000000000e-09     1     4     9     5
-1.1240800000e-04     1     4     9     6
-1.1091460000e-04     1     4     9     7
-3.8894590000e-04     1     4     9     8
 1.2476300000e-05     1     4     9     9
 8.3704000000e-06     1     4     9    10
 1.2904118000e-03     1     4     9    11
-7.0108895000e-03     1     4     9    12
 4.0506420000e-04     1     4     9    13
-2.1608870000e-04     1     4    10     1
 4.5653600000e-05     1     4    10     2
-9.4598000000e-06     1     4    10     3
 8.4000000000e-09     1     4    10     5
 2.9765000000e-06     1     4    10     6
 8.1166400000e-04     1     4    10     7
 2.7903059000e-03     1     4    10     8
-4.6454000000e-05     1     4    10     9
 1.6586300000e-05     1     4    10    10
-8.0050040000e-04     1     4    10    11
 4.5274493000e-03     1     4    10    12
-2.5904670000e-04     1     4    10    13
-6.6828074000e-03     1     4    11     1
 1.1363790000e-03     1     4    11     2
-2.8192900000e-04     1     4    11     3
 1.0543000000e-06     1     4    11     5
 4.3374300000e-05     1     4    11     6
-3.0741900000e-05     1     4    11     7
 9.3067000000e-06     1     4    11     8
-4.1763750000e-04     1     4    11     9
 7.1628070000e-04     1     4    11    10
-4.0583000000e-06     1     4    11    11
-5.1294700000e-05     1     4    11    12
 1.3668499000e-03     1     4    11    13
 3.6187907400e-02     1     4    12     1
-6.1551361000e-03     1     4    12     2
 1.5346800000e-03     1     4    12     3
-2.1612000000e-06     1     4    12     5
-2.3582690000e-04     1     4    12     6
 7.8034500000e-05     1     4    12     7
 1.5346640000e-04     1     4    12     8
 2.2669410000e-03     1     4    12     9
-3.9928044000e-03     1     4    12    10
 3.2505800000e-05     1     4    12    11
 9.1222000000e-05     1     4    12    12
-1.8380597000e-03     1     4    12    13
-2.3210339000e-03     1     4    13     1
 3.9197160000e-04     1     4    13     2
-1.0006350000e-04     1     4    13     3
 5.3500000000e-08     1     4    13     5
 9.5835000000e-06     1     4    13     6
-7.5410510000e-04     1     4    13     7
 2.0138131000e-03     1     4    13     8
-1.5802190000e-04     1     4    13     9
 2.6301360000e-04     1     4    13    10
-2.7362806000e-03     1     4    13    11
 2.8011696000e-03     1     4    13    12
-5.7514800000e-05     1     4    13    13
-7.9490000000e-06     1     5     2     1
-4.2511600000e-05     1     5     2     2
-1.1530000000e-07     1     5     2     3
-4.8000000000e-09     1     5     2     4
 8.1504000000e-06     1     5     2     6
-1.9906967100e-02     1     5     2     7
 5.6853928000e-03     1     5     2     8
 4.7592920000e-04     1     5     2     9
 2.3230700000e-05     1     5     2    10
-3.4319136000e-03     1     5     2    11
-6.3834280000e-04     1     5     2    12
-2.9555600000e-05     1     5     2    13
-1.2970000000e-06     1     5     3     1
-5.2562000000e-06     1     5     3     2
-6.3208600000e-05     1     5     3     3
-4.4000000000e-09     1     5     3     4
 1.9851000000e-06     1     5     3     6
-5.1842110000e-04     1     5     3     7
 1.4762840000e-04     1     5     3     8
-9.3240000000e-06     1     5     3     9
-7.2747800000e-05     1     5     3    10
 3.2532618700e-02     1     5     3    11
 6.0442593000e-03     1     5     3    12
 1.9291570000e-04     1     5     3    13
-2.0200000000e-08     1     5     4     1
 6.1000000000e-09     1     5     4     2
 1.2800000000e-08     1     5     4     3
-6.3743400000e-05     1     5     4     4
-6.5000000000e-09     1     5     4     6
 2.4303000000e-06     1     5     4     7
 4.5927000000e-06     1     5     4     8
-7.5700000000e-07     1     5     4     9
-2.8488400000e-04     1     5     4    10
 4.4401240000e-04     1     5     4    11
 1.6683530000e-04     1     5     4    12
 1.6092992600e-02     1     5     4    13
-2.9278183670e-01     1     5     5     1
 8.3302307800e-02     1     5     5     2
-3.8922256300e-02     1     5     5     3
-2.2650300000e-05     1     5     5     4
-2.9513815200e-02     1     5     5     6
 2.0717570000e-04     1     5     5     7
 4.3363300000e-05     1     5     5     8
 8.6329587000e-03     1     5     5     9
 1.4357387100e-02     1     5     5    10
 8.3665850000e-04     1     5     5    11
-2.1004730000e-03     1     5     5    12
-2.7278483400e-02     1     5     5    13
-6.1918000000e-06     1     5     6     1
-5.0190000000e-07     1     5     6     2
-1.3030000000e-07     1     5     6     3
-5.7000000000e-09     1     5     6     4
-6.2045700000e-05     1     5     6     6
 1.5945438300e-02     1     5     6     7
-4.5548714000e-03     1     5     6     8
-3.9442030000e-04     1     5     6     9
-4.0519900000e-05     1     5     6    10
 4.4059377000e-03     1     5     6    11
 8.1755820000e-04     1     5     6    12
 3.2171000000e-05     1     5     6    13
-6.0301826400e-02     1     5     7     1
 2.9589131700e-02     1     5     7     2
-2.9200937000e-03     1     5     7     3
-1.1390000000e-06     1     5     7     4
-1.0020905200e-02     1     5     7     6
-8.7822500000e-05     1     5     7     7
-4.0396000000e-06     1     5     7     8
-8.3720800000e-04     1     5     7     9
-2.2092287000e-03     1     5     7    10
 2.6354830000e-04     1     5     7    11
-6.1082960000e-04     1     5     7    12
-7.6346934000e-03     1     5     7    13
 1.7219707800e-02     1     5     8     1
-8.4480808000e-03     1     5     8     2
 8.3401290000e-04     1     5     8     3
 5.8755000000e-06     1     5     8     4
 2.8602724000e-03     1     5     8     6
 7.4167000000e-06     1     5     8     7
-6.5500500000e-05     1     5     8     8
 2.3923790000e-04     1     5     8     9
 7.0672850000e-04     1     5     8    10
-1.0846670000e-04     1     5     8    11
 1.4558930000e-04     1     5     8    12
-1.6214526000e-03     1     5     8    13
 1.4517399000e-03     1     5     9     1
-7.0483730000e-04     1     5     9     2
 6.4191500000e-05     1     5     9     3
 1.0000000000e-09     1     5     9     4
 2.2945860000e-04     1     5     9     6
 3.8930320000e-04     1     5     9     7
-1.1086780000e-04     1     5     9     8
-4.7864400000e-05     1     5     9     9
 3.7601900000e-05     1     5     9    10
 7.0278117000e-03     1     5     9    11
 1.3215957000e-03     1     5     9    12
 2.3484610000e-04     1     5     9    13
 1.5453860000e-04     1     5    10     1
-4.1139000000e-05     1     5    10     2
 8.5943000000e-06     1     5    10     3
-8.4000000000e-09     1     5    10     4
-3.3710000000e-06     1     5    10     6
-2.8221013000e-03     1     5    10     7
 7.8835000000e-04     1     5    10     8
 7.4506800000e-05     1     5    10     9
-5.7058100000e-05     1     5    10    10
-4.5939847000e-03     1     5    10    11
-8.8963880000e-04     1     5    10    12
-1.2939100000e-05     1     5    10    13
-3.6254451200e-02     1     5    11     1
 6.1627277000e-03     1     5    11     2
-1.5374765000e-03     1     5    11     3
-1.0543000000e-06     1     5    11     4
 2.3703150000e-04     1     5    11     6
-1.2810160000e-04     1     5    11     7
 4.0484500000e-05     1     5    11     8
-2.2713121000e-03     1     5    11     9
 4.0487872000e-03     1     5    11    10
-1.1443830000e-04     1     5    11    11
-1.3664170000e-04     1     5    11    12
-1.8754834000e-03     1     5    11    13
-6.7395847000e-03     1     5    12     1
 1.1455087000e-03     1     5    12     2
-2.8434340000e-04     1     5    12     3
 2.1612000000e-06     1     5    12     4
 4.3426900000e-05     1     5    12     6
 3.3916800000e-05     1     5    12     7
-3.3038000000e-06     1     5    12     8
-4.2328380000e-04     1     5    12     9
 7.7182020000e-04     1     5    12    10
 1.7371920000e-04     1     5    12    11
-4.8058700000e-05     1     5    12    12
-1.3711052000e-03     1     5    12    13
-2.8403950000e-04     1     5    13     1
 5.2270100000e-05     1     5    13     2
-1.1788600000e-05     1     5    13     3
-5.3500000000e-08     1     5    13     4