&FCI NORB= 13,NELEC=  2,MS2=0,
 ORBSYM=1,1,1,1,1,1,1,1,1,1,1,1,1
 ISYM=1,
&END
 3.0963607210e-01     1     1     2     2
-2.2329370000e-04     1     1     2     3
-4.3248960000e-04     1     1     2     4
 1.2038304600e-02     1     1     2     5
 9.1058618400e-02     1     1     2     6
-7.5753600000e-05     1     1     2     7
 1.4865970000e-04     1     1     2     8
-1.0894798400e-02     1     1     2     9
-6.2056800000e-05     1     1     2    10
-2.0478220000e-04     1     1     2    11
-9.3117500000e-05     1     1     2    12
-1.1294884000e-03     1     1     2    13
-2.2329370000e-04     1     1     3     2
 3.3820022200e-01     1     1     3     3
 4.7183000000e-06     1     1     3     4
-1.2743410000e-04     1     1     3     5
 4.1997000000e-05     1     1     3     6
 6.5674686200e-02     1     1     3     7
 1.0621391300e-02     1     1     3     8
-1.1971445000e-03     1     1     3     9
-4.0706200000e-05     1     1     3    10
-9.0559000000e-06     1     1     3    11
 3.3079969400e-02     1     1     3    12
 3.2599248800e-02     1     1     3    13
-4.3248960000e-04     1     1     4     2
 4.7183000000e-06     1     1     4     3
 3.3821204610e-01     1     1     4     4
-2.4639810000e-04     1     1     4     5
-9.8259400000e-05     1     1     4     6
-1.0654246500e-02     1     1     4     7
 6.5630187600e-02     1     1     4     8
-2.3396894000e-03     1     1     4     9
 8.0481900000e-05     1     1     4    10
 7.6836000000e-06     1     1     4    11
-3.2777873000e-02     1     1     4    12
 3.2861690000e-02     1     1     4    13
 1.2038304600e-02     1     1     5     2
-1.2743410000e-04     1     1     5     3
-2.4639810000e-04     1     1     5     4
 3.4643438670e-01     1     1     5     5
-3.3438700000e-04     1     1     5     6
 8.0986350000e-04     1     1     5     7
 2.4909571000e-03     1     1     5     8
 6.5608124600e-02     1     1     5     9
 1.9517290000e-04     1     1     5    10
 6.3051010000e-04     1     1     5    11
-2.4478810000e-04     1     1     5    12
 5.2897559000e-03     1     1     5    13
 9.1058618400e-02     1     1     6     2
 4.1997000000e-05     1     1     6     3
-9.8259400000e-05     1     1     6     4
-3.3438700000e-04     1     1     6     5
 3.9314771560e-01     1     1     6     6
-9.4249000000e-06     1     1     6     7
 1.4057600000e-05     1     1     6     8
 1.8614528000e-03     1     1     6     9
-2.7172000000e-06     1     1     6    10
-1.1218200000e-05     1     1     6    11
 4.8688000000e-06     1     1     6    12
-1.3389060000e-04     1     1     6    13
-7.5753600000e-05     1     1     7     2
 6.5674686200e-02     1     1     7     3
-1.0654246500e-02     1     1     7     4
 8.0986350000e-04     1     1     7     5
-9.4249000000e-06     1     1     7     6
 3.9576087580e-01     1     1     7     7
-1.8984000000e-06     1     1     7     8
-2.5199800000e-05     1     1     7     9
-2.1059700000e-05     1     1     7    10
-3.6637000000e-06     1     1     7    11
 8.0400545000e-03     1     1     7    12
 5.7202011000e-03     1     1     7    13
 1.4865970000e-04     1     1     8     2
 1.0621391300e-02     1     1     8     3
 6.5630187600e-02     1     1     8     4
 2.4909571000e-03     1     1     8     5
 1.4057600000e-05     1     1     8     6
-1.8984000000e-06     1     1     8     7
 3.9577175450e-01     1     1     8     8
-6.6321600000e-05     1     1     8     9
 3.1555500000e-05     1     1     8    10
 1.1021800000e-05     1     1     8    11
-5.7463080000e-03     1     1     8    12
 8.0312881000e-03     1     1     8    13
-1.0894798400e-02     1     1     9     2
-1.1971445000e-03     1     1     9     3
-2.3396894000e-03     1     1     9     4
 6.5608124600e-02     1     1     9     5
 1.8614528000e-03     1     1     9     6
-2.5199800000e-05     1     1     9     7
-6.6321600000e-05     1     1     9     8
 4.2465520350e-01     1     1     9     9
 1.1803700000e-05     1     1     9    10
 3.9118900000e-05     1     1     9    11
 1.7826600000e-05     1     1     9    12
 3.0539780000e-04     1     1     9    13
-6.2056800000e-05     1     1    10     2
-4.0706200000e-05     1     1    10     3
 8.0481900000e-05     1     1    10     4
 1.9517290000e-04     1     1    10     5
-2.7172000000e-06     1     1    10     6
-2.1059700000e-05     1     1    10     7
 3.1555500000e-05     1     1    10     8
 1.1803700000e-05     1     1    10     9
 3.8252002540e-01     1     1    10    10
 4.3820000000e-07     1     1    10    11
-2.7960500000e-05     1     1    10    12
 1.4486200000e-05     1     1    10    13
-2.0478220000e-04     1     1    11     2
-9.0559000000e-06     1     1    11     3
 7.6836000000e-06     1     1    11     4
 6.3051010000e-04     1     1    11     5
-1.1218200000e-05     1     1    11     6
-3.6637000000e-06     1     1    11     7
 1.1021800000e-05     1     1    11     8
 3.9118900000e-05     1     1    11     9
 4.3820000000e-07     1     1    11    10
 3.8252566350e-01     1     1    11    11
-6.9885000000e-06     1     1    11    12
 6.7213000000e-06     1     1    11    13
-9.3117500000e-05     1     1    12     2
 3.3079969400e-02     1     1    12     3
-3.2777873000e-02     1     1    12     4
-2.4478810000e-04     1     1    12     5
 4.8688000000e-06     1     1    12     6
 8.0400545000e-03     1     1    12     7
-5.7463080000e-03     1     1    12     8
 1.7826600000e-05     1     1    12     9
-2.7960500000e-05     1     1    12    10
-6.9885000000e-06     1     1    12    11
 3.9597605830e-01     1     1    12    12
-3.0856000000e-06     1     1    12    13
-1.1294884000e-03     1     1    13     2
 3.2599248800e-02     1     1    13     3
 3.2861690000e-02     1     1    13     4
 5.2897559000e-03     1     1    13     5
-1.3389060000e-04     1     1    13     6
 5.7202011000e-03     1     1    13     7
 8.0312881000e-03     1     1    13     8
 3.0539780000e-04     1     1    13     9
 1.4486200000e-05     1     1    13    10
 6.7213000000e-06     1     1    13    11
-3.0856000000e-06     1     1    13    12
 3.9600706620e-01     1     1    13    13
-3.0963607210e-01     1     2     2     1
-7.1657750000e-04     1     2     2     3
-1.3872387000e-03     1     2     2     4
 3.8236293300e-02     1     2     2     5
 5.7157166800e-02     1     2     2     6
-6.0665200000e-05     1     2     2     7
 6.3965200000e-05     1     2     2     8
 1.1956264200e-02     1     2     2     9
-2.9155100000e-05     1     2     2    10
-9.6433800000e-05     1     2     2    11
-4.5471700000e-05     1     2     2    12
-5.3800420000e-04     1     2     2    13
 2.2329370000e-04     1     2     3     1
 8.6294528600e-02     1     2     3     3
 1.9589000000e-06     1     2     3     4
-4.7132700000e-05     1     2     3     5
 2.8335350000e-04     1     2     3     6
 5.3261983800e-02     1     2     3     7
 8.6137326000e-03     1     2     3     8
-9.5615270000e-04     1     2     3     9
-1.5967700000e-05     1     2     3    10
-2.9275000000e-06     1     2     3    11
 1.0116749300e-02     1     2     3    12
 9.9709667000e-03     1     2     3    13
 4.3248960000e-04     1     2     4     1
 1.9575000000e-06     1     2     4     3
 8.6299029200e-02     1     2     4     4
-9.1084100000e-05     1     2     4     5
 3.9898430000e-04     1     2     4     6
-8.6430582000e-03     1     2     4     7
 5.3230082500e-02     1     2     4     8
-1.8671338000e-03     1     2     4     9
 3.1160400000e-05     1     2     4    10
 5.1656000000e-06     1     2     4    11
-1.0024429400e-02     1     2     4    12
 1.0060380600e-02     1     2     4    13
-1.2038304600e-02     1     2     5     1
-5.1308600000e-05     1     2     5     3
-9.9157200000e-05     1     2     5     4
 8.9515607000e-02     1     2     5     5
-1.3179358900e-02     1     2     5     6
 6.7181920000e-04     1     2     5     7
 2.0155866000e-03     1     2     5     8
 5.2480437100e-02     1     2     5     9
 5.3064700000e-05     1     2     5    10
 1.7203890000e-04     1     2     5    11
-1.0170780000e-04     1     2     5    12
 1.5506248000e-03     1     2     5    13
-9.1058618400e-02     1     2     6     1
 6.7381900000e-05     1     2     6     3
 8.2188600000e-05     1     2     6     4
-2.9601406000e-03     1     2     6     5
 9.6228856500e-02     1     2     6     6
-1.3271200000e-05     1     2     6     7
 2.5847000000e-06     1     2     6     8
 8.8079505000e-03     1     2     6     9
-3.4133000000e-06     1     2     6    10
-1.2949200000e-05     1     2     6    11
-9.5210000000e-07     1     2     6    12
-9.8147700000e-05     1     2     6    13
 7.5753600000e-05     1     2     7     1
 1.7013735700e-02     1     2     7     3
-2.7592103000e-03     1     2     7     4
 2.1149150000e-04     1     2     7     5
-5.9975000000e-06     1     2     7     6
 9.5150282200e-02     1     2     7     7
 7.8700000000e-08     1     2     7     8
-2.0028600000e-05     1     2     7     9
-1.9251000000e-06     1     2     7    10
 1.0727000000e-06     1     2     7    11
 3.9007430000e-03     1     2     7    12
 2.7725573000e-03     1     2     7    13
-1.4865970000e-04     1     2     8     1
 2.7502046000e-03     1     2     8     3
 1.7000942100e-02     1     2     8     4
 6.3947730000e-04     1     2     8     5
 1.9399800000e-05     1     2     8     6
-1.2355000000e-06     1     2     8     7
 9.5156677500e-02     1     2     8     8
-2.6630700000e-05     1     2     8     9
 4.2296000000e-06     1     2     8    10
 2.0182000000e-06     1     2     8    11
-2.7873482000e-03     1     2     8    12
 3.8973805000e-03     1     2     8    13
 1.0894798400e-02     1     2     9     1
-2.9227330000e-04     1     2     9     3
-5.7079740000e-04     1     2     9     4
 1.6179128700e-02     1     2     9     5
-2.5197520000e-04     1     2     9     6
-7.9689000000e-06     1     2     9     7
-2.8312500000e-05     1     2     9     8
 1.1363735190e-01     1     2     9     9
 1.6810400000e-05     1     2     9    10
 5.4542000000e-05     1     2     9    11
 2.8805100000e-05     1     2     9    12
 3.1112210000e-04     1     2     9    13
 6.2056800000e-05     1     2    10     1
-8.1153000000e-06     1     2    10     3
 1.5661400000e-05     1     2    10     4
 1.6844800000e-05     1     2    10     5
-1.1685300000e-05     1     2    10     6
-1.0860300000e-05     1     2    10     7
 1.7564300000e-05     1     2    10     8
 3.0963400000e-05     1     2    10     9
 8.3397202800e-02     1     2    10    10
 3.9870000000e-07     1     2    10    11
-9.0598000000e-06     1     2    10    12
 6.7155000000e-06     1     2    10    13
 2.0478220000e-04     1     2    11     1
-2.0149000000e-06     1     2    11     3
 3.3981000000e-06     1     2    11     4
 5.4629200000e-05     1     2    11     5
-3.9803700000e-05     1     2    11     6
-6.6870000000e-07     1     2    11     7
 6.5309000000e-06     1     2    11     8
 1.0090610000e-04     1     2    11     9
 4.0150000000e-07     1     2    11    10
 8.3400949100e-02     1     2    11    11
-9.5010000000e-07     1     2    11    12
 7.9422000000e-06     1     2    11    13
 9.3117500000e-05     1     2    12     1
 2.9201933000e-03     1     2    12     3
-2.8932743000e-03     1     2    12     4
-2.9694200000e-05     1     2    12     5
-7.2884000000e-06     1     2    12     6
 7.3539795000e-03     1     2    12     7
-5.2528713000e-03     1     2    12     8
 5.5444300000e-05     1     2    12     9
-8.2581000000e-06     1     2    12    10
-6.4200000000e-07     1     2    12    11
 9.3455823800e-02     1     2    12    12
-1.0887000000e-06     1     2    12    13
 1.1294884000e-03     1     2    13     1
 2.8777671000e-03     1     2    13     3
 2.9027925000e-03     1     2    13     4
 4.8446020000e-04     1     2    13     5
-2.4644840000e-04     1     2    13     6
 5.2311042000e-03     1     2    13     7
 7.3415545000e-03     1     2    13     8
 5.7091770000e-04     1     2    13     9
 6.3633000000e-06     1     2    13    10
 8.2009000000e-06     1     2    13    11
-5.8910000000e-07     1     2    13    12
 9.3468809500e-02     1     2    13    13
 2.2329370000e-04     1     3     2     1
 7.1657750000e-04     1     3     2     2
 1.4000000000e-09     1     3     2     4
 4.1759000000e-06     1     3     2     5
 2.1597160000e-04     1     3     2     6
 3.6248248100e-02     1     3     2     7
 5.8635280000e-03     1     3     2     8
-6.6387940000e-04     1     3     2     9
-7.8524000000e-06     1     3     2    10
-9.1260000000e-07     1     3     2    11
 7.1965560000e-03     1     3     2    12
 7.0931996000e-03     1     3     2    13
-3.3820022200e-01     1     3     3     1
-8.6294528600e-02     1     3     3     2
-1.3749104000e-03     1     3     3     4
 3.8062974900e-02     1     3     3     5
-1.5496199400e-02     1     3     3     6
-2.5604650000e-04     1     3     3     7
-1.1302240000e-04     1     3     3     8
-7.0363035000e-03     1     3     3     9
-3.5326238400e-02     1     3     3    10
-1.0853524000e-02     1     3     3    11
 1.0612817000e-03     1     3     3    12
 2.5230438000e-03     1     3     3    13
-4.7183000000e-06     1     3     4     1
-1.9575000000e-06     1     3     4     2
 7.1028740000e-04     1     3     4     4
-1.6630000000e-07     1     3     4     5
-9.1722000000e-06     1     3     4     6
-2.5012760000e-04     1     3     4     7
-1.7895620000e-04     1     3     4     8
 3.4149000000e-06     1     3     4     9
-1.1257975600e-02     1     3     4    10
 3.5951931200e-02     1     3     4    11
 4.7193760000e-04     1     3     4    12
 1.4681244000e-03     1     3     4    13
 1.2743410000e-04     1     3     5     1
 5.1308600000e-05     1     3     5     2
-4.0000000000e-10     1     3     5     4
 7.2152000000e-04     1     3     5     5
 2.5978390000e-04     1     3     5     6
 7.3191151000e-03     1     3     5     7
 1.1779355000e-03     1     3     5     8
-1.6490060000e-04     1     3     5     9
-1.0363690000e-03     1     3     5    10
 1.1190899000e-03     1     3     5    11
-2.7505164300e-02     1     3     5    12
-2.7038695800e-02     1     3     5    13
-4.1997000000e-05     1     3     6     1
-6.7381900000e-05     1     3     6     2
-1.1100000000e-08     1     3     6     4
-3.8375000000e-06     1     3     6     5
 6.8640640000e-04     1     3     6     6
 4.5356732000e-03     1     3     6     7
 7.3462760000e-04     1     3     6     8
-3.3845330000e-04     1     3     6     9
-3.2747000000e-06     1     3     6    10
-1.3292500000e-05     1     3     6    11
 2.8088158000e-03     1     3     6    12
 2.7661618000e-03     1     3     6    13
-6.5674686200e-02     1     3     7     1
-1.7013735700e-02     1     3     7     2
-1.0308000000e-05     1     3     7     4
 1.1974850000e-04     1     3     7     5
-1.8007220000e-02     1     3     7     6
 7.8725750000e-04     1     3     7     7
-2.7437400000e-05     1     3     7     8
-7.3713343000e-03     1     3     7     9
-5.6282137000e-03     1     3     7    10
-2.6582402000e-03     1     3     7    11
 1.8899720000e-04     1     3     7    12
 5.9779480000e-04     1     3     7    13
-1.0621391300e-02     1     3     8     1
-2.7502046000e-03     1     3     8     2
 3.2678000000e-06     1     3     8     4
 1.9937900000e-05     1     3     8     5
-2.9117064000e-03     1     3     8     6
 1.2972500000e-05     1     3     8     7
 7.8565250000e-04     1     3     8     8
-1.1924691000e-03     1     3     8     9
-2.7165273000e-03     1     3     8    10
 5.2450012000e-03     1     3     8    11
-9.0262100000e-05     1     3     8    12
 2.5493940000e-04     1     3     8    13
 1.1971445000e-03     1     3     9     1
 2.9227330000e-04     1     3     9     2
-2.2000000000e-09     1     3     9     4
-2.4263000000e-06     1     3     9     5
 1.1909050000e-04     1     3     9     6
-4.2175414000e-03     1     3     9     7
-6.8095700000e-04     1     3     9     8
 8.0727960000e-04     1     3     9     9
 1.1587400000e-05     1     3     9    10
 3.4571000000e-06     1     3     9    11
-2.3226992000e-03     1     3     9    12
-2.2881342000e-03     1     3     9    13
 4.0706200000e-05     1     3    10     1
 8.1153000000e-06     1     3    10     2
-1.6020000000e-07     1     3    10     4
 1.7958000000e-06     1     3    10     5
 4.0996000000e-06     1     3    10     6
 4.4526419000e-03     1     3    10     7
 2.4661304000e-03     1     3    10     8
 1.0347200000e-05     1     3    10     9
 7.3347110000e-04     1     3    10    10
 1.4152500000e-05     1     3    10    11
 1.5362180000e-03     1     3    10    12
 3.4424493000e-03     1     3    10    13
 9.0559000000e-06     1     3    11     1
 2.0149000000e-06     1     3    11     2
 5.5759999999e-07     1     3    11     4
-1.9505000000e-06     1     3    11     5
 9.2724000000e-06     1     3    11     6
 2.4014933000e-03     1     3    11     7
-5.2836135000e-03     1     3    11     8
 1.5117000000e-06     1     3    11     9
-1.0062800000e-05     1     3    11    10
 7.3178250000e-04     1     3    11    11
 3.8098603000e-03     1     3    11    12
-2.3753633000e-03     1     3    11    13
-3.3079969400e-02     1     3    12     1
-2.9201933000e-03     1     3    12     2
-2.2477700000e-05     1     3    12     4
 4.6716810000e-04     1     3    12     5
-1.8244601000e-03     1     3    12     6
-3.0604500000e-05     1     3    12     7
 3.2684400000e-05     1     3    12     8
 4.7242986000e-03     1     3    12     9
-1.7329352000e-03     1     3    12    10
-2.7142542000e-03     1     3    12    11
 7.6239990000e-04     1     3    12    12
 3.5037660000e-04     1     3    12    13
-3.2599248800e-02     1     3    13     1
-2.8777671000e-03     1     3    13     2
-7.0146000000e-06     1     3    13     4
 4.6129060000e-04     1     3    13     5
-1.7965378000e-03     1     3    13     6
-5.1645500000e-05     1     3    13     7
-6.7054400000e-05     1     3    13     8
 4.6554052000e-03     1     3    13     9
-2.9754664000e-03     1     3    13    10
 1.3514316000e-03     1     3    13    11
-2.4749670000e-04     1     3    13    12
 8.2422000000e-04     1     3    13    13
 4.3248960000e-04     1     4     2     1
 1.3872387000e-03     1     4     2     2
-1.4000000000e-09     1     4     2     3
 8.0731000000e-06     1     4     2     5
 3.1679570000e-04     1     4     2     6
-5.8838479000e-03     1     4     2     7
 3.6229140400e-02     1     4     2     8
-1.2963364000e-03     1     4     2     9
 1.5499000000e-05     1     4     2    10
 1.7675000000e-06     1     4     2    11
-7.1311551000e-03     1     4     2    12
 7.1575881000e-03     1     4     2    13
-4.7183000000e-06     1     4     3     1
-1.9589000000e-06     1     4     3     2
 1.3749104000e-03     1     4     3     3
-1.6590000000e-07     1     4     3     5
-9.1611000000e-06     1     4     3     6
-2.3981960000e-04     1     4     3     7
-1.8222400000e-04     1     4     3     8
 3.4171000000e-06     1     4     3     9
-1.1257815400e-02     1     4     3    10
 3.5951373600e-02     1     4     3    11
 4.9441530000e-04     1     4     3    12
 1.4751390000e-03     1     4     3    13
-3.3821204610e-01     1     4     4     1
-8.6299029200e-02     1     4     4     2
-7.1028740000e-04     1     4     4     3
 3.8062902500e-02     1     4     4     5
-1.5510097400e-02     1     4     4     6
 8.1575900000e-05     1     4     4     7
-5.6645840000e-04     1     4     4     8
-7.0317708000e-03     1     4     4     9
 3.5469891800e-02     1     4     4    10
 1.1309174400e-02     1     4     4    11
-1.7232575000e-03     1     4     4    12
 3.3583557000e-03     1     4     4    13
 2.4639810000e-04     1     4     5     1
 9.9157200000e-05     1     4     5     2
 4.0000000000e-10     1     4     5     3
 1.3965394000e-03     1     4     5     5
 4.7331250000e-04     1     4     5     6
-1.1957696000e-03     1     4     5     7
 7.3084770000e-03     1     4     5     8
-3.1735930000e-04     1     4     5     9
 1.0024028000e-03     1     4     5    10
 1.0817161000e-03     1     4     5    11
 2.7239864300e-02     1     4     5    12
-2.7192770800e-02     1     4     5    13
 9.8259400000e-05     1     4     6     1
-8.2188600000e-05     1     4     6     2
 1.1100000000e-08     1     4     6     3
-7.4849000000e-06     1     4     6     5
 1.3785710000e-03     1     4     6     6
-7.3677620000e-04     1     4     6     7
 4.5363646000e-03     1     4     6     8
-6.3367050000e-04     1     4     6     9
-5.4559000000e-06     1     4     6    10
-8.3020000000e-07     1     4     6    11
-2.7846341000e-03     1     4     6    12
 2.7893623000e-03     1     4     6    13
 1.0654246500e-02     1     4     7     1
 2.7592103000e-03     1     4     7     2
 1.0308000000e-05     1     4     7     3
-1.9539600000e-05     1     4     7     5
 2.9217476000e-03     1     4     7     6
 1.5197515000e-03     1     4     7     7
 1.0409800000e-05     1     4     7     8
 1.1974070000e-03     1     4     7     9
-2.7209201000e-03     1     4     7    10
 5.2229807000e-03     1     4     7    11
 3.0129840000e-04     1     4     7    12
 1.4772800000e-04     1     4     7    13
-6.5630187600e-02     1     4     8     1
-1.7000942100e-02     1     4     8     2
-3.2678000000e-06     1     4     8     3
 1.1966750000e-04     1     4     8     5
-1.7993968700e-02     1     4     8     6
 2.4856500000e-05     1     4     8     7
 1.4761761000e-03     1     4     8     8
-7.3677012000e-03     1     4     8     9
 5.6695586000e-03     1     4     8    10
 2.7987461000e-03     1     4     8    11
-1.8994470000e-04     1     4     8    12
 7.8796990000e-04     1     4     8    13
 2.3396894000e-03     1     4     9     1
 5.7079740000e-04     1     4     9     2
 2.2000000000e-09     1     4     9     3
-4.7529000000e-06     1     4     9     5
 2.4891980000e-04     1     4     9     6
 6.8413410000e-04     1     4     9     7
-4.2122337000e-03     1     4     9     8
 1.5647745000e-03     1     4     9     9
-2.3555200000e-05     1     4     9    10
-5.0715000000e-06     1     4     9    11
 2.3021156000e-03     1     4     9    12
-2.3032330000e-03     1     4     9    13
-8.0481900000e-05     1     4    10     1
-1.5661400000e-05     1     4    10     2
 1.6020000000e-07     1     4    10     3
-1.3067000000e-06     1     4    10     5
 2.8600000000e-08     1     4    10     6
 2.4621341000e-03     1     4    10     7
-4.4600876000e-03     1     4    10     8
-1.5255400000e-05     1     4    10     9
 1.4193227000e-03     1     4    10    10
-4.0910000000e-06     1     4    10    11
 3.4815561000e-03     1     4    10    12
-1.5738419000e-03     1     4    10    13
-7.6836000000e-06     1     4    11     1
-3.3981000000e-06     1     4    11     2
-5.5759999999e-07     1     4    11     3
-1.8252000000e-06     1     4    11     5
-1.9838000000e-06     1     4    11     6
-5.2788406000e-03     1     4    11     7
-2.4187322000e-03     1     4    11     8
-9.6632000000e-06     1     4    11     9
 5.4990000000e-06     1     4    11    10
 1.4160000000e-03     1     4    11    11
-2.2671625000e-03     1     4    11    12
-3.9095424000e-03     1     4    11    13
 3.2777873000e-02     1     4    12     1
 2.8932743000e-03     1     4    12     2
 2.2477700000e-05     1     4    12     3
-4.6319060000e-04     1     4    12     5
 1.8070461000e-03     1     4    12     6
-9.8005500000e-05     1     4    12     7
 4.3342600000e-05     1     4    12     8
-4.6802511000e-03     1     4    12     9
-3.0155715000e-03     1     4    12    10
 1.2488668000e-03     1     4    12    11
 1.4641496000e-03     1     4    12    12
-4.1208510000e-04     1     4    12    13
-3.2861690000e-02     1     4    13     1
-2.9027925000e-03     1     4    13     2
 7.0146000000e-06     1     4    13     3
 4.6634720000e-04     1     4    13     5
-1.8104700000e-03     1     4    13     6
-7.8981100000e-05     1     4    13     7
-1.0062620000e-04     1     4    13     8
 4.6907134000e-03     1     4    13     9
 1.7603354000e-03     1     4    13    10
 2.8107910000e-03     1     4    13    11
 2.7586290000e-04     1     4    13    12
 1.5337978000e-03     1     4    13    13
-1.2038304600e-02     1     5     2     1
-3.8236293300e-02     1     5     2     2
-4.1759000000e-06     1     5     2     3
-8.0731000000e-06     1     5     2     4
-1.0219218300e-02     1     5     2     6
 4.6032770000e-04     1     5     2     7
 1.3761093000e-03     1     5     2     8
 3.6301308400e-02     1     5     2     9
 3.6219900000e-05     1     5     2    10
 1.1740970000e-04     1     5     2    11
-7.2013600000e-05     1     5     2    12
 1.0661646000e-03     1     5     2    13
 1.2743410000e-04     1     5     3     1
 4.7132700000e-05     1     5     3     2
-3.8062974900e-02     1     5     3     3
 1.6590000000e-07     1     5     3     4
 2.6362140000e-04     1     5     3     6
 7.1993666000e-03     1     5     3     7
 1.1579976000e-03     1     5     3     8
-1.6247430000e-04     1     5     3     9
-1.0381648000e-03     1     5     3    10
 1.1210404000e-03     1     5     3    11
-2.7972332400e-02     1     5     3    12
-2.7499986400e-02     1     5     3    13
 2.4639810000e-04     1     5     4     1
 9.1084100000e-05     1     5     4     2
 1.6630000000e-07     1     5     4     3
-3.8062902500e-02     1     5     4     4
 4.8079740000e-04     1     5     4     6
-1.1762300000e-03     1     5     4     7
 7.1888095000e-03     1     5     4     8
-3.1260640000e-04     1     5     4     9
 1.0037095000e-03     1     5     4    10
 1.0835413000e-03     1     5     4    11
 2.7703054900e-02     1     5     4    12
-2.7659118000e-02     1     5     4    13
-3.4643438670e-01     1     5     5     1
-8.9515607000e-02     1     5     5     2
-7.2152000000e-04     1     5     5     3
-1.3965394000e-03     1     5     5     4
-2.9098478500e-02     1     5     5     6
 2.2307620000e-04     1     5     5     7
 5.6689630000e-04     1     5     5     8
 2.2101055000e-03     1     5     5     9
-1.6011230000e-04     1     5     5    10
-5.0987010000e-04     1     5     5    11
 6.4372270000e-04     1     5     5    12
-6.2063955000e-03     1     5     5    13
 3.3438700000e-04     1     5     6     1
 2.9601406000e-03     1     5     6     2
 3.8375000000e-06     1     5     6     3
 7.4849000000e-06     1     5     6     4
-3.7157855300e-02     1     5     6     6
 4.2255100000e-05     1     5     6     7
 1.5250830000e-04     1     5     6     8
 1.7651639800e-02     1     5     6     9
 1.8449700000e-05     1     5     6    10
 6.0750200000e-05     1     5     6    11
-3.2623800000e-05     1     5     6    12
 5.4094730000e-04     1     5     6    13
-8.0986350000e-04     1     5     7     1
-2.1149150000e-04     1     5     7     2
-1.1974850000e-04     1     5     7     3
 1.9539600000e-05     1     5     7     4
-2.2932250000e-04     1     5     7     6
-4.1908911300e-02     1     5     7     7
 8.4880000000e-07     1     5     7     8
-1.0221920000e-04     1     5     7     9
-1.7944720000e-04     1     5     7    10
 1.4628080000e-04     1     5     7    11
-8.6705526000e-03     1     5     7    12
-6.1695029000e-03     1     5     7    13
-2.4909571000e-03     1     5     8     1
-6.3947730000e-04     1     5     8     2
-1.9937900000e-05     1     5     8     3
-1.1966750000e-04     1     5     8     4
-6.8895460000e-04     1     5     8     6
 1.2027000000e-06     1     5     8     7
-4.1909637900e-02     1     5     8     8
-2.4264280000e-04     1     5     8     9
 1.1854670000e-04     1     5     8    10
 1.8891320000e-04     1     5     8    11
 6.1940914000e-03     1     5     8    12
-8.6339160000e-03     1     5     8    13
-6.5608124600e-02     1     5     9     1
-1.6179128700e-02     1     5     9     2
 2.4263000000e-06     1     5     9     3
 4.7529000000e-06     1     5     9     4
-7.0700280000e-03     1     5     9     6
-3.6501000000e-05     1     5     9     7
-1.4911060000e-04     1     5     9     8
-4.2383124900e-02     1     5     9     9
-1.8751100000e-05     1     5     9    10
-5.9859900000e-05     1     5     9    11
 8.8657000000e-06     1     5     9    12
-5.6890050000e-04     1     5     9    13
-1.9517290000e-04     1     5    10     1
-1.6844800000e-05     1     5    10     2
-1.7958000000e-06     1     5    10     3
 1.3067000000e-06     1     5    10     4
-1.4533600000e-05     1     5    10     6
 1.8656280000e-04     1     5    10     7
-1.3187920000e-04     1     5    10     8
 2.4085300000e-05     1     5    10     9
-3.8947317200e-02     1     5    10    10
 1.2900000000e-07     1     5    10    11
 1.8686490000e-04     1     5    10    12
-1.8728000000e-06     1     5    10    13
-6.3051010000e-04     1     5    11     1
-5.4629200000e-05     1     5    11     2
 1.9505000000e-06     1     5    11     3
 1.8252000000e-06     1     5    11     4
-4.8311900000e-05     1     5    11     6
-1.4210230000e-04     1     5    11     7
-1.9239280000e-04     1     5    11     8
 7.7404400000e-05     1     5    11     9
 1.8000000000e-08     1     5    11    10
-3.8947506300e-02     1     5    11    11
-2.3260000000e-07     1     5    11    12
-1.9339020000e-04     1     5    11    13
 2.4478810000e-04     1     5    12     1
 2.9694200000e-05     1     5    12     2
-4.6716810000e-04     1     5    12     3
 4.6319060000e-04     1     5    12     4
 1.6454100000e-05     1     5    12     6
 2.9808673000e-03     1     5    12     7
-2.1268324000e-03     1     5    12     8
-2.4277800000e-05     1     5    12     9
-1.2480090000e-04     1     5    12    10
 8.9030000000e-07     1     5    12    11
-3.9243994700e-02     1     5    12    12
-6.4119000000e-06     1     5    12    13
-5.2897559000e-03     1     5    13     1
-4.8446020000e-04     1     5    13     2
-4.6129060000e-04     1     5    13     3
-4.6634720000e-04     1     5    13     4