&FCI NORB= 13,NELEC=  2,MS2=0,
 ORBSYM=1,1,1,1,1,1,1,1,1,1,1,1,1
 ISYM=1,
&END
 3.2458125040e-01     1     1     2     2
 6.0948000000e-06     1     1     2     3
 1.8255500000e-05     1     1     2     4
-9.7388153000e-03     1     1     2     5
-9.7631006800e-02     1     1     2     6
-6.9616400000e-05     1     1     2     7
 7.6326400000e-05     1     1     2     8
 1.9680127800e-02     1     1     2     9
-2.7927960000e-04     1     1     2    10
 1.2335110000e-04     1     1     2    11
 2.7499950000e-04     1     1     2    12
 6.3257360000e-04     1     1     2    13
 6.0948000000e-06     1     1     3     2
 3.5551392050e-01     1     1     3     3
 2.1500000000e-08     1     1     3     4
-1.0670200000e-05     1     1     3     5
-8.1502800000e-05     1     1     3     6
 6.5629012600e-02     1     1     3     7
-3.5354542500e-02     1     1     3     8
-4.6879200000e-05     1     1     3     9
-2.8319240000e-04     1     1     3    10
 3.2497440000e-04     1     1     3    11
 1.6081389600e-02     1     1     3    12
-3.7419543800e-02     1     1     3    13
 1.8255500000e-05     1     1     4     2
 2.1500000000e-08     1     1     4     3
 3.5551634700e-01     1     1     4     4
-3.1178100000e-05     1     1     4     5
 1.2371700000e-05     1     1     4     6
 3.5348327700e-02     1     1     4     7
 6.5645199800e-02     1     1     4     8
-1.2013140000e-04     1     1     4     9
-3.5070950000e-04     1     1     4    10
-1.6957480000e-04     1     1     4    11
-3.7406848800e-02     1     1     4    12
-1.6062377100e-02     1     1     4    13
-9.7388153000e-03     1     1     5     2
-1.0670200000e-05     1     1     5     3
-3.1178100000e-05     1     1     5     4
 3.7712594220e-01     1     1     5     5
 1.0775845900e-02     1     1     5     6
 1.0059110000e-04     1     1     5     7
 6.1749200000e-05     1     1     5     8
 8.3738777700e-02     1     1     5     9
-8.8235840000e-04     1     1     5    10
 8.9122900000e-05     1     1     5    11
 2.9949900000e-05     1     1     5    12
 1.5653440000e-04     1     1     5    13
-9.7631006800e-02     1     1     6     2
-8.1502800000e-05     1     1     6     3
 1.2371700000e-05     1     1     6     4
 1.0775845900e-02     1     1     6     5
 4.2243882510e-01     1     1     6     6
 3.4188000000e-06     1     1     6     7
-6.1340000000e-06     1     1     6     8
-5.0389171000e-03     1     1     6     9
 2.3817000000e-05     1     1     6    10
 3.9209700000e-05     1     1     6    11
 7.7253800000e-05     1     1     6    12
 1.9148070000e-04     1     1     6    13
-6.9616400000e-05     1     1     7     2
 6.5629012600e-02     1     1     7     3
 3.5348327700e-02     1     1     7     4
 1.0059110000e-04     1     1     7     5
 3.4188000000e-06     1     1     7     6
 4.2555557880e-01     1     1     7     7
-5.3650000000e-07     1     1     7     8
-5.8573000000e-06     1     1     7     9
-5.2796600000e-05     1     1     7    10
 2.6272400000e-05     1     1     7    11
-5.1523890000e-04     1     1     7    12
-5.8347079000e-03     1     1     7    13
 7.6326400000e-05     1     1     8     2
-3.5354542500e-02     1     1     8     3
 6.5645199800e-02     1     1     8     4
 6.1749200000e-05     1     1     8     5
-6.1340000000e-06     1     1     8     6
-5.3650000000e-07     1     1     8     7
 4.2554937340e-01     1     1     8     8
 4.9817000000e-06     1     1     8     9
-2.1096200000e-05     1     1     8    10
-3.7076200000e-05     1     1     8    11
-5.8171588000e-03     1     1     8    12
 5.1956310000e-04     1     1     8    13
 1.9680127800e-02     1     1     9     2
-4.6879200000e-05     1     1     9     3
-1.2013140000e-04     1     1     9     4
 8.3738777700e-02     1     1     9     5
-5.0389171000e-03     1     1     9     6
-5.8573000000e-06     1     1     9     7
 4.9817000000e-06     1     1     9     8
 4.4625964140e-01     1     1     9     9
-2.4165430000e-04     1     1     9    10
-4.3520300000e-05     1     1     9    11
-1.4858460000e-04     1     1     9    12
-3.4463690000e-04     1     1     9    13
-2.7927960000e-04     1     1    10     2
-2.8319240000e-04     1     1    10     3
-3.5070950000e-04     1     1    10     4
-8.8235840000e-04     1     1    10     5
 2.3817000000e-05     1     1    10     6
-5.2796600000e-05     1     1    10     7
-2.1096200000e-05     1     1    10     8
-2.4165430000e-04     1     1    10     9
 4.0316650450e-01     1     1    10    10
-2.1390000000e-07     1     1    10    11
 3.3583000000e-05     1     1    10    12
 5.7029200000e-05     1     1    10    13
 1.2335110000e-04     1     1    11     2
 3.2497440000e-04     1     1    11     3
-1.6957480000e-04     1     1    11     4
 8.9122900000e-05     1     1    11     5
 3.9209700000e-05     1     1    11     6
 2.6272400000e-05     1     1    11     7
-3.7076200000e-05     1     1    11     8
-4.3520300000e-05     1     1    11     9
-2.1390000000e-07     1     1    11    10
 4.0315389680e-01     1     1    11    11
 4.6598300000e-05     1     1    11    12
-3.3974500000e-05     1     1    11    13
 2.7499950000e-04     1     1    12     2
 1.6081389600e-02     1     1    12     3
-3.7406848800e-02     1     1    12     4
 2.9949900000e-05     1     1    12     5
 7.7253800000e-05     1     1    12     6
-5.1523890000e-04     1     1    12     7
-5.8171588000e-03     1     1    12     8
-1.4858460000e-04     1     1    12     9
 3.3583000000e-05     1     1    12    10
 4.6598300000e-05     1     1    12    11
 4.1504559200e-01     1     1    12    12
 7.6387000000e-06     1     1    12    13
 6.3257360000e-04     1     1    13     2
-3.7419543800e-02     1     1    13     3
-1.6062377100e-02     1     1    13     4
 1.5653440000e-04     1     1    13     5
 1.9148070000e-04     1     1    13     6
-5.8347079000e-03     1     1    13     7
 5.1956310000e-04     1     1    13     8
-3.4463690000e-04     1     1    13     9
 5.7029200000e-05     1     1    13    10
-3.3974500000e-05     1     1    13    11
 7.6387000000e-06     1     1    13    12
 4.1509385410e-01     1     1    13    13
-3.2458125040e-01     1     2     2     1
 1.4684800000e-05     1     2     2     3
 4.3358400000e-05     1     2     2     4
-2.1980854100e-02     1     2     2     5
-5.9994829000e-02     1     2     2     6
-4.0081700000e-05     1     2     2     7
 5.1590700000e-05     1     2     2     8
 4.1197240000e-03     1     2     2     9
-1.0466950000e-04     1     2     2    10
 9.1783100000e-05     1     2     2    11
 2.2413740000e-04     1     2     2    12
 5.1998330000e-04     1     2     2    13
-6.0948000000e-06     1     2     3     1
 9.7132632400e-02     1     2     3     3
 4.0000000000e-09     1     2     3     4
-1.4152000000e-06     1     2     3     5
-5.3472400000e-05     1     2     3     6
 4.7798695300e-02     1     2     3     7
-2.5746722200e-02     1     2     3     8
-3.2865800000e-05     1     2     3     9
-1.2161760000e-04     1     2     3    10
 1.3847110000e-04     1     2     3    11
 6.9547108000e-03     1     2     3    12
-1.6193387000e-02     1     2     3    13
-1.8255500000e-05     1     2     4     1
 3.8000000000e-09     1     2     4     3
 9.7133597900e-02     1     2     4     4
-4.1124000000e-06     1     2     4     5
 2.5944900000e-05     1     2     4     6
 2.5744206300e-02     1     2     4     7
 4.7804852100e-02     1     2     4     8
-7.9457400000e-05     1     2     4     9
-1.4882500000e-04     1     2     4    10
-7.0945100000e-05     1     2     4    11
-1.6178012700e-02     1     2     4    12
-6.9503097000e-03     1     2     4    13
 9.7388153000e-03     1     2     5     1
-1.8688000000e-06     1     2     5     3
-5.3449000000e-06     1     2     5     4
 1.0189516250e-01     1     2     5     5
-6.3662960000e-04     1     2     5     6
 6.8880100000e-05     1     2     5     7
 5.6055400000e-05     1     2     5     8
 5.6040762900e-02     1     2     5     9
-5.2685920000e-04     1     2     5    10
-1.7724200000e-05     1     2     5    11
-1.5383610000e-04     1     2     5    12
-3.2485210000e-04     1     2     5    13
 9.7631006800e-02     1     2     6     1
-1.4283600000e-05     1     2     6     3
 5.9530000000e-06     1     2     6     4
 4.9673000000e-06     1     2     6     5
 1.0991802100e-01     1     2     6     6
 3.0220000000e-06     1     2     6     7
-6.0533000000e-06     1     2     6     8
 2.8356700000e-04     1     2     6     9
 2.3059000000e-06     1     2     6    10
 6.1935000000e-06     1     2     6    11
 2.5440000000e-07     1     2     6    12
 7.6722000000e-06     1     2     6    13
 6.9616400000e-05     1     2     7     1
 1.2362799300e-02     1     2     7     3
 6.6562898000e-03     1     2     7     4
 1.6943600000e-05     1     2     7     5
 4.7351000000e-06     1     2     7     6
 1.0992483450e-01     1     2     7     7
-9.9820000000e-07     1     2     7     8
-1.5952000000e-06     1     2     7     9
-3.6677600000e-05     1     2     7    10
 1.8476000000e-05     1     2     7    11
-3.2871080000e-04     1     2     7    12
-3.7070309000e-03     1     2     7    13
-7.6326400000e-05     1     2     8     1
-6.6569766000e-03     1     2     8     3
 1.2364196000e-02     1     2     8     4
 1.3166700000e-05     1     2     8     5
-3.8516000000e-06     1     2     8     6
 7.3150000000e-07     1     2     8     7
 1.0992310510e-01     1     2     8     8
-4.5320000000e-07     1     2     8     9
-1.4577900000e-05     1     2     8    10
-2.4737800000e-05     1     2     8    11
-3.6972072000e-03     1     2     8    12
 3.3136220000e-04     1     2     8    13
-1.9680127800e-02     1     2     9     1
-9.2048000000e-06     1     2     9     3
-2.2877900000e-05     1     2     9     4
 1.5435735200e-02     1     2     9     5
-3.4515732000e-03     1     2     9     6
-3.2760000000e-06     1     2     9     7
 3.4578000000e-06     1     2     9     8
 1.2596627290e-01     1     2     9     9
-2.1976210000e-04     1     2     9    10
-2.7210100000e-05     1     2     9    11
-1.0756630000e-04     1     2     9    12
-2.5002000000e-04     1     2     9    13
 2.7927960000e-04     1     2    10     1
-2.7344900000e-05     1     2    10     3
-3.3362600000e-05     1     2    10     4
-1.4556790000e-04     1     2    10     5
 2.9790100000e-05     1     2    10     6
-5.1311100000e-05     1     2    10     7
-2.1009600000e-05     1     2    10     8
-2.2807140000e-04     1     2    10     9
 9.3038279300e-02     1     2    10    10
-1.8990000000e-07     1     2    10    11
 3.0282000000e-05     1     2    10    12
 4.9753900000e-05     1     2    10    13
-1.2335110000e-04     1     2    11     1
 3.1278900000e-05     1     2    11     3
-1.6370500000e-05     1     2    11     4
-3.2314000000e-06     1     2    11     5
 1.5819400000e-05     1     2    11     6
 2.5527500000e-05     1     2    11     7
-3.6503200000e-05     1     2    11     8
-1.5536900000e-05     1     2    11     9
-2.9310000000e-07     1     2    11    10
 9.3030612700e-02     1     2    11    11
 4.0873700000e-05     1     2    11    12
-3.1808500000e-05     1     2    11    13
-2.7499950000e-04     1     2    12     1
 1.5698848000e-03     1     2    12     3
-3.6532520000e-03     1     2    12     4
-3.7731700000e-05     1     2    12     5
 3.0548800000e-05     1     2    12     6
-4.5656590000e-04     1     2    12     7
-5.1477509000e-03     1     2    12     8
-7.9706400000e-05     1     2    12     9
 2.9832600000e-05     1     2    12    10
 4.0452800000e-05     1     2    12    11
 1.0152973470e-01     1     2    12    12
 4.3072000000e-06     1     2    12    13
-6.3257360000e-04     1     2    13     1
-3.6572421000e-03     1     2    13     3
-1.5691110000e-03     1     2    13     4
-8.0998100000e-05     1     2    13     5
 8.3780300000e-05     1     2    13     6
-5.1557566000e-03     1     2    13     7
 4.5981430000e-04     1     2    13     8
-1.8298810000e-04     1     2    13     9
 5.0068500000e-05     1     2    13    10
-3.1246900000e-05     1     2    13    11
 3.7129000000e-06     1     2    13    12
 1.0155679320e-01     1     2    13    13
-6.0948000000e-06     1     3     2     1
-1.4684800000e-05     1     3     2     2
 2.0000000000e-10     1     3     2     4
 4.5360000000e-07     1     3     2     5
-3.9188800000e-05     1     3     2     6
 3.5435896000e-02     1     3     2     7
-1.9089745600e-02     1     3     2     8
-2.3661000000e-05     1     3     2     9
-9.4272700000e-05     1     3     2    10
 1.0719220000e-04     1     3     2    11
 5.3848260000e-03     1     3     2    12
-1.2536144900e-02     1     3     2    13
-3.5551392050e-01     1     3     3     1
-9.7132632400e-02     1     3     3     2
 4.0332600000e-05     1     3     3     4
-2.0534926000e-02     1     3     3     5
 1.6595581400e-02     1     3     3     6
 3.0844800000e-05     1     3     3     7
-1.2303300000e-05     1     3     3     8
-5.7184538000e-03     1     3     3     9
-2.3901442000e-03     1     3     3    10
-3.9484780100e-02     1     3     3    11
-5.3943300000e-05     1     3     3    12
-9.1958610000e-04     1     3     3    13
-2.1500000000e-08     1     3     4     1
-3.8000000000e-09     1     3     4     2
-1.3714400000e-05     1     3     4     4
 1.0000000000e-09     1     3     4     5
-7.2860000000e-07     1     3     4     6
 2.7318400000e-05     1     3     4     7
-2.7569000000e-06     1     3     4     8
-4.1385190000e-04     1     3     4     9
-3.9958590300e-02     1     3     4    10
 2.5738279000e-03     1     3     4    11
 1.8255920000e-04     1     3     4    12
 4.8366320000e-04     1     3     4    13
 1.0670200000e-05     1     3     5     1
 1.8688000000e-06     1     3     5     2
 1.0000000000e-10     1     3     5     4
-1.4916000000e-05     1     3     5     5
 1.7140000000e-06     1     3     5     6
-1.1124694800e-02     1     3     5     7
 5.9855070000e-03     1     3     5     8
-5.1491000000e-06     1     3     5     9
-3.5774930000e-04     1     3     5    10
 2.9736960000e-04     1     3     5    11
 1.5908660000e-02     1     3     5    12
-3.6984995700e-02     1     3     5    13
 8.1502800000e-05     1     3     6     1
 1.4283600000e-05     1     3     6     2
 5.0000000000e-10     1     3     6     4
-3.0790000000e-07     1     3     6     5
-2.9379700000e-05     1     3     6     6
-5.4597839000e-03     1     3     6     7
 2.9422620000e-03     1     3     6     8
 8.6994000000e-06     1     3     6     9
 1.9566000000e-05     1     3     6    10
-1.6039600000e-05     1     3     6    11
-1.3637727000e-03     1     3     6    12
 3.1829837000e-03     1     3     6    13
-6.5629012600e-02     1     3     7     1
-1.2362799300e-02     1     3     7     2
-1.9790000000e-07     1     3     7     4
 5.4535940000e-04     1     3     7     5
 1.6121056700e-02     1     3     7     6
-9.0593000000e-06     1     3     7     7
-1.4291000000e-05     1     3     7     8
 4.4368278000e-03     1     3     7     9
-3.3437625000e-03     1     3     7    10
-5.9744336000e-03     1     3     7    11
-1.0899570000e-04     1     3     7    12
-3.8932260000e-04     1     3     7    13
 3.5354542500e-02     1     3     8     1
 6.6569766000e-03     1     3     8     2
 2.1170000000e-07     1     3     8     4
-2.9301610000e-04     1     3     8     5
-8.6831577000e-03     1     3     8     6
-4.2995000000e-06     1     3     8     7
-8.1805000000e-06     1     3     8     8
-2.4944597000e-03     1     3     8     9
-5.3644940000e-03     1     3     8    10
 3.7370448000e-03     1     3     8    11
 1.0150080000e-04     1     3     8    12
 3.1086750000e-04     1     3     8    13
 4.6879200000e-05     1     3     9     1
 9.2048000000e-06     1     3     9     2
-2.0000000007e-10     1     3     9     4
 4.4240000000e-07     1     3     9     5
-9.9280000000e-06     1     3     9     6
 4.8383567000e-03     1     3     9     7
-2.5396405000e-03     1     3     9     8
-1.3840700000e-05     1     3     9     9
-1.4204100000e-05     1     3     9    10
 1.5617300000e-05     1     3     9    11
 1.2359177000e-03     1     3     9    12
-2.9434336000e-03     1     3     9    13
 2.8319240000e-04     1     3    10     1
 2.7344900000e-05     1     3    10     2
 3.6500000009e-08     1     3    10     4
-2.6867000000e-06     1     3    10     5
-2.0278000000e-05     1     3    10     6
 4.0463949000e-03     1     3    10     7
 6.5869372000e-03     1     3    10     8
 9.6271800000e-05     1     3    10     9
-2.4751000000e-05     1     3    10    10
 7.1572000000e-06     1     3    10    11
-3.2189740000e-03     1     3    10    12
-1.5278773000e-03     1     3    10    13
-3.2497440000e-04     1     3    11     1
-3.1278900000e-05     1     3    11     2
-3.8700000000e-08     1     3    11     4
 3.6410000000e-06     1     3    11     5
 2.0234200000e-05     1     3    11     6
 5.5209240000e-03     1     3    11     7
-3.4646098000e-03     1     3    11     8
-1.0327880000e-04     1     3    11     9
-5.6610000000e-06     1     3    11    10
-1.5443500000e-05     1     3    11    11
 1.3534994000e-03     1     3    11    12
-2.5989591000e-03     1     3    11    13
-1.6081389600e-02     1     3    12     1
-1.5698848000e-03     1     3    12     2
-1.0906000000e-06     1     3    12     4
 2.3083700000e-04     1     3    12     5
 1.2060232000e-03     1     3    12     6
-9.4686100000e-05     1     3    12     7
 9.2591000000e-06     1     3    12     8
-4.7749098000e-03     1     3    12     9
 2.2459209000e-03     1     3    12    10
-1.2858322000e-03     1     3    12    11
 2.3991000000e-05     1     3    12    12
-7.5234900000e-05     1     3    12    13
 3.7419543800e-02     1     3    13     1
 3.6572421000e-03     1     3    13     2
 1.2326000000e-06     1     3    13     4
-5.3052450000e-04     1     3    13     5
-2.8047908000e-03     1     3    13     6
-1.0745100000e-04     1     3    13     7
-2.0149300000e-05     1     3    13     8
 1.1198606600e-02     1     3    13     9
 1.0394893000e-03     1     3    13    10
 2.5728306000e-03     1     3    13    11
 7.1552100000e-05     1     3    13    12
-2.0563200000e-04     1     3    13    13
-1.8255500000e-05     1     4     2     1
-4.3358400000e-05     1     4     2     2
-2.0000000000e-10     1     4     2     3
 1.2325000000e-06     1     4     2     5
 1.9991900000e-05     1     4     2     6
 1.9087916500e-02     1     4     2     7
 3.5440656100e-02     1     4     2     8
-5.6579500000e-05     1     4     2     9
-1.1546240000e-04     1     4     2    10
-5.4574600000e-05     1     4     2    11
-1.2524760700e-02     1     4     2    12
-5.3811987000e-03     1     4     2    13
-2.1500000000e-08     1     4     3     1
-4.0000000000e-09     1     4     3     2
-4.0332600000e-05     1     4     3     3
 9.0000000000e-10     1     4     3     5
-7.2910000000e-07     1     4     3     6
 2.7516300000e-05     1     4     3     7
-2.9686000000e-06     1     4     3     8
-4.1385170000e-04     1     4     3     9
-3.9958626800e-02     1     4     3    10
 2.5738666000e-03     1     4     3    11
 1.8364980000e-04     1     4     3    12
 4.8243060000e-04     1     4     3    13
-3.5551634700e-01     1     4     4     1
-9.7133597900e-02     1     4     4     2
 1.3714400000e-05     1     4     4     3
-2.0534885300e-02     1     4     4     5
 1.6596179100e-02     1     4     4     6
 3.8497200000e-05     1     4     4     7
 3.1954300000e-05     1     4     4     8
-5.7196919000e-03     1     4     4     9
 2.6843317000e-03     1     4     4    10
 3.9210419200e-02     1     4     4    11
-4.8820540000e-04     1     4     4    12
-5.2773330000e-04     1     4     4    13
 3.1178100000e-05     1     4     5     1
 5.3449000000e-06     1     4     5     2
-1.0000000000e-10     1     4     5     3
-4.4085600000e-05     1     4     5     5
-4.2098100000e-05     1     4     5     6
-5.9914378000e-03     1     4     5     7
-1.1109788700e-02     1     4     5     8
-2.9605900000e-05     1     4     5     9
-3.6888310000e-04     1     4     5    10
-9.2312900000e-05     1     4     5    11
-3.7002501800e-02     1     4     5    12
-1.5880062800e-02     1     4     5    13
-1.2371700000e-05     1     4     6     1
-5.9530000000e-06     1     4     6     2
-5.0000000000e-10     1     4     6     3
 1.3237000000e-06     1     4     6     5
-3.3355400000e-05     1     4     6     6
-2.9423726000e-03     1     4     6     7
-5.4593915000e-03     1     4     6     8
 4.0079600000e-05     1     4     6     9
 3.2884200000e-05     1     4     6    10
 1.3871800000e-05     1     4     6    11
 3.1758505000e-03     1     4     6    12
 1.3641815000e-03     1     4     6    13
-3.5348327700e-02     1     4     7     1
-6.6562898000e-03     1     4     7     2
 1.9790000000e-07     1     4     7     3
 2.9292010000e-04     1     4     7     5
 8.6818302000e-03     1     4     7     6
-4.3169300000e-05     1     4     7     7
-1.1212800000e-05     1     4     7     8
 2.3282428000e-03     1     4     7     9
-5.3650924000e-03     1     4     7    10
 3.6676079000e-03     1     4     7    11
-8.5690200000e-05     1     4     7    12
-1.0968030000e-04     1     4     7    13
-6.5645199800e-02     1     4     8     1
-1.2364196000e-02     1     4     8     2
-2.1170000000e-07     1     4     8     3
 5.4549420000e-04     1     4     8     5
 1.6123377100e-02     1     4     8     6
 1.3114300000e-05     1     4     8     7
-5.8189200000e-05     1     4     8     8
 4.5201631000e-03     1     4     8     9
 3.3419072000e-03     1     4     8    10
 5.8486528000e-03     1     4     8    11
-2.1940600000e-04     1     4     8    12
-4.2033000000e-04     1     4     8    13
 1.2013140000e-04     1     4     9     1
 2.2877900000e-05     1     4     9     2
 2.0000000007e-10     1     4     9     3
 1.3587000000e-06     1     4     9     5
-6.2676000000e-06     1     4     9     6
 2.6396304000e-03     1     4     9     7
 4.7825584000e-03     1     4     9     8
-3.5357100000e-05     1     4     9     9
-1.6625500000e-05     1     4     9    10
-8.3308000000e-06     1     4     9    11
-2.9168566000e-03     1     4     9    12
-1.2844533000e-03     1     4     9    13
 3.5070950000e-04     1     4    10     1
 3.3362600000e-05     1     4    10     2
-3.6500000009e-08     1     4    10     3
-3.8062000000e-06     1     4    10     5
-3.5337500000e-05     1     4    10     6
 6.5425477000e-03     1     4    10     7
-4.1276314000e-03     1     4    10     8
 1.1433100000e-04     1     4    10     9
-5.4322900000e-05     1     4    10    10
-5.4440000000e-07     1     4    10    11
 1.6457781000e-03     1     4    10    12
-3.1719270000e-03     1     4    10    13
 1.6957480000e-04     1     4    11     1
 1.6370500000e-05     1     4    11     2
 3.8700000000e-08     1     4    11     3
-2.4522000000e-06     1     4    11     5
-1.5876200000e-05     1     4    11     6
-3.4752775000e-03     1     4    11     7
-5.5414727000e-03     1     4    11     8
 4.8877800000e-05     1     4    11     9
 9.6610000000e-07     1     4    11    10
-4.8294800000e-05     1     4    11    11
 2.5232791000e-03     1     4    11    12
 1.3216271000e-03     1     4    11    13
 3.7406848800e-02     1     4    12     1
 3.6532520000e-03     1     4    12     2
 1.0906000000e-06     1     4    12     3
-5.3014090000e-04     1     4    12     5
-2.8028285000e-03     1     4    12     6
-3.4893000000e-05     1     4    12     7
 5.6180000000e-06     1     4    12     8
 1.1177328600e-02     1     4    12     9
-1.2408440000e-03     1     4    12    10
-2.5742217000e-03     1     4    12    11
-1.2743590000e-04     1     4    12    12
-6.7931300000e-05     1     4    12    13
 1.6062377100e-02     1     4    13     1
 1.5691110000e-03     1     4    13     2
-1.2326000000e-06     1     4    13     3
-2.3070880000e-04     1     4    13     5
-1.2050001000e-03     1     4    13     6
-1.3531790000e-04     1     4    13     7
-9.1030800000e-05     1     4    13     8
 4.8357147000e-03     1     4    13     9
 2.1604921000e-03     1     4    13    10
-1.2877439000e-03     1     4    13    11
-2.0055410000e-04     1     4    13    12
-1.2761520000e-04     1     4    13    13
 9.7388153000e-03     1     5     2     1
 2.1980854100e-02     1     5     2     2
-4.5360000000e-07     1     5     2     3
-1.2325000000e-06     1     5     2     4
-6.4159690000e-04     1     5     2     6
 5.1936500000e-05     1     5     2     7
 4.2888700000e-05     1     5     2     8
 4.0605027700e-02     1     5     2     9
-3.8129130000e-04     1     5     2    10
-1.4492800000e-05     1     5     2    11
-1.1610440000e-04     1     5     2    12
-2.4385400000e-04     1     5     2    13
 1.0670200000e-05     1     5     3     1
 1.4152000000e-06     1     5     3     2
 2.0534926000e-02     1     5     3     3
-9.0000000000e-10     1     5     3     4
 2.0219000000e-06     1     5     3     6
-1.1670054200e-02     1     5     3     7
 6.2785231000e-03     1     5     3     8
-5.5915000000e-06     1     5     3     9
-3.5506260000e-04     1     5     3    10
 2.9372860000e-04     1     5     3    11
 1.5677823000e-02     1     5     3    12
-3.6454471200e-02     1     5     3    13
 3.1178100000e-05     1     5     4     1
 4.1124000000e-06     1     5     4     2
-1.0000000000e-09     1     5     4     3
 2.0534885300e-02     1     5     4     4
-4.3421800000e-05     1     5     4     6
-6.2843579000e-03     1     5     4     7
-1.1655282900e-02     1     5     4     8
-3.0964600000e-05     1     5     4     9
-3.6507690000e-04     1     5     4    10
-8.9860700000e-05     1     5     4    11
-3.6472360900e-02     1     5     4    12
-1.5649354000e-02     1     5     4    13
-3.7712594220e-01     1     5     5     1
-1.0189516250e-01     1     5     5     2
 1.4916000000e-05     1     5     5     3
 4.4085600000e-05     1     5     5     4
 3.5362750900e-02     1     5     5     6
-2.0417100000e-05     1     5     5     7
-7.8883000000e-05     1     5     5     8
 9.0123518000e-03     1     5     5     9
-3.0552490000e-04     1     5     5    10
 3.1393220000e-04     1     5     5    11
 6.3263560000e-04     1     5     5    12
 1.6722420000e-03     1     5     5    13
-1.0775845900e-02     1     5     6     1
-4.9673000000e-06     1     5     6     2
 3.0790000000e-07     1     5     6     3
-1.3237000000e-06     1     5     6     4
 1.9833148100e-02     1     5     6     6
-6.8117000000e-06     1     5     6     7
 1.5194000000e-06     1     5     6     8
-2.2017397000e-02     1     5     6     9
 1.6948860000e-04     1     5     6    10
 1.3129800000e-05     1     5     6    11
 6.2294200000e-05     1     5     6    12
 1.6861730000e-04     1     5     6    13
-1.0059110000e-04     1     5     7     1
-1.6943600000e-05     1     5     7     2
-5.4535940000e-04     1     5     7     3
-2.9292010000e-04     1     5     7     4
 2.1232300000e-05     1     5     7     6
 2.3277114500e-02     1     5     7     7
 2.2490000000e-07     1     5     7     8
-3.5498000000e-06     1     5     7     9
-1.0851710000e-04     1     5     7    10
 4.9485300000e-05     1     5     7    11
-9.2946380000e-04     1     5     7    12
-1.0592084400e-02     1     5     7    13
-6.1749200000e-05     1     5     8     1
-1.3166700000e-05     1     5     8     2
 2.9301610000e-04     1     5     8     3
-5.4549420000e-04     1     5     8     4
 2.2395800000e-05     1     5     8     6
-2.1340000000e-07     1     5     8     7
 2.3276622200e-02     1     5     8     8
 2.8565500000e-05     1     5     8     9
-3.8221600000e-05     1     5     8    10
-5.8034900000e-05     1     5     8    11
-1.0592443200e-02     1     5     8    12
 9.3485660000e-04     1     5     8    13
-8.3738777700e-02     1     5     9     1
-1.5435735200e-02     1     5     9     2
-4.4240000000e-07     1     5     9     3
-1.3587000000e-06     1     5     9     4
 7.8357581000e-03     1     5     9     6
 1.4784700000e-05     1     5     9     7
 7.3030000000e-07     1     5     9     8
 1.9566864800e-02     1     5     9     9
 1.7518700000e-05     1     5     9    10
 4.6377400000e-05     1     5     9    11
 1.2660760000e-04     1     5     9    12
 3.1670830000e-04     1     5     9    13
 8.8235840000e-04     1     5    10     1
 1.4556790000e-04     1     5    10     2
 2.6867000000e-06     1     5    10     3
 3.8062000000e-06     1     5    10     4
-1.0869490000e-04     1     5    10     6
 8.5221300000e-05     1     5    10     7
 2.5816600000e-05     1     5    10     8
 6.8037200000e-05     1     5    10     9
 2.3149664800e-02     1     5    10    10
-2.8250000000e-07     1     5    10    11
-1.1652700000e-05     1     5    10    12
-1.5569600000e-05     1     5    10    13
-8.9122900000e-05     1     5    11     1
 3.2314000000e-06     1     5    11     2
-3.6410000000e-06     1     5    11     3
 2.4522000000e-06     1     5    11     4
 1.1436500000e-05     1     5    11     6
-3.7851700000e-05     1     5    11     7
 3.6036000000e-05     1     5    11     8
-2.9325700000e-05     1     5    11     9
 4.2120000000e-07     1     5    11    10
 2.3149678600e-02     1     5    11    11
-6.0399000000e-06     1     5    11    12
 1.5164300000e-05     1     5    11    13
-2.9949900000e-05     1     5    12     1
 3.7731700000e-05     1     5    12     2
-2.3083700000e-04     1     5    12     3
 5.3014090000e-04     1     5    12     4
 1.6376700000e-05     1     5    12     6
 5.2776550000e-04     1     5    12     7
 5.9203724000e-03     1     5    12     8
-3.3186900000e-05     1     5    12     9
-1.0486300000e-05     1     5    12    10
-1.7571400000e-05     1     5    12    11
 2.2134154800e-02     1     5    12    12
-1.1722000000e-06     1     5    12    13
-1.5653440000e-04     1     5    13     1
 8.0998100000e-05     1     5    13     2
 5.3052450000e-04     1     5    13     3
 2.3070880000e-04     1     5    13     4