&FCI NORB= 13,NELEC=  2,MS2=0,
 ORBSYM=1,1,1,1,1,1,1,1,1,1,1,1,1
 ISYM=1,
&END
 2.6290341110e-01     1     1     2     2
-5.4523300000e-03     1     1     2     3
 9.8768500000e-05     1     1     2     4
 4.3090800000e-05     1     1     2     5
 7.3012111000e-02     1     1     2     6
 2.2469710000e-04     1     1     2     7
 2.3064720000e-04     1     1     2     8
-2.8457200000e-02     1     1     2     9
-2.4717400000e-04     1     1     2    10
 2.0965140000e-04     1     1     2    11
 7.3264000000e-05     1     1     2    12
-5.4800833000e-03     1     1     2    13
-5.4523300000e-03     1     1     3     2
 3.0899569130e-01     1     1     3     3
 3.9651000000e-06     1     1     3     4
 1.7568000000e-06     1     1     3     5
-3.2915786000e-03     1     1     3     6
-7.7252330000e-04     1     1     3     7
 9.2232940000e-04     1     1     3     8
-6.0420372900e-02     1     1     3     9
-2.1616554000e-03     1     1     3    10
 9.5802240000e-04     1     1     3    11
 4.4347770000e-04     1     1     3    12
-5.1706462500e-02     1     1     3    13
 9.8768500000e-05     1     1     4     2
 3.9651000000e-06     1     1     4     3
 3.1010146190e-01     1     1     4     4
-4.1100000000e-08     1     1     4     5
 6.5591900000e-05     1     1     4     6
-6.0818121600e-02     1     1     4     7
-4.4325614000e-03     1     1     4     8
 6.3127000000e-04     1     1     4     9
 4.5020113000e-03     1     1     4    10
-4.4681659900e-02     1     1     4    11
 4.1687322000e-03     1     1     4    12
-6.4178210000e-04     1     1     4    13
 4.3090800000e-05     1     1     5     2
 1.7568000000e-06     1     1     5     3
-4.1100000000e-08     1     1     5     4
 3.1010740770e-01     1     1     5     5
 3.3168200000e-05     1     1     5     6
-4.4208092000e-03     1     1     5     7
 6.0818232900e-02     1     1     5     8
 1.0001578000e-03     1     1     5     9
-5.2884170000e-04     1     1     5    10
-4.2083507000e-03     1     1     5    11
-4.4718045700e-02     1     1     5    12
-5.2013120000e-04     1     1     5    13
 7.3012111000e-02     1     1     6     2
-3.2915786000e-03     1     1     6     3
 6.5591900000e-05     1     1     6     4
 3.3168200000e-05     1     1     6     5
 3.5175475020e-01     1     1     6     6
-7.6027200000e-05     1     1     6     7
-8.0593000000e-05     1     1     6     8
 9.0739807000e-03     1     1     6     9
 2.6491680000e-04     1     1     6    10
-2.6202690000e-04     1     1     6    11
-1.1741220000e-04     1     1     6    12
 4.6485689000e-03     1     1     6    13
 2.2469710000e-04     1     1     7     2
-7.7252330000e-04     1     1     7     3
-6.0818121600e-02     1     1     7     4
-4.4208092000e-03     1     1     7     5
-7.6027200000e-05     1     1     7     6
 3.4474488830e-01     1     1     7     7
 4.1360000000e-07     1     1     7     8
-3.6109000000e-06     1     1     7     9
-1.2553424000e-03     1     1     7    10
 1.3670399000e-02     1     1     7    11
-2.7825640000e-04     1     1     7    12
 4.3524370000e-04     1     1     7    13
 2.3064720000e-04     1     1     8     2
 9.2232940000e-04     1     1     8     3
-4.4325614000e-03     1     1     8     4
 6.0818232900e-02     1     1     8     5
-8.0593000000e-05     1     1     8     6
 4.1360000000e-07     1     1     8     7
 3.4476484040e-01     1     1     8     8
-2.8210600000e-05     1     1     8     9
-2.5724030000e-04     1     1     8    10
-2.8371970000e-04     1     1     8    11
-1.3684399400e-02     1     1     8    12
-3.8844600000e-04     1     1     8    13
-2.8457200000e-02     1     1     9     2
-6.0420372900e-02     1     1     9     3
 6.3127000000e-04     1     1     9     4
 1.0001578000e-03     1     1     9     5
 9.0739807000e-03     1     1     9     6
-3.6109000000e-06     1     1     9     7
-2.8210600000e-05     1     1     9     8
 3.5558065050e-01     1     1     9     9
 5.4587160000e-04     1     1     9    10
-3.9338140000e-04     1     1     9    11
-3.1480560000e-04     1     1     9    12
 1.4049540300e-02     1     1     9    13
-2.4717400000e-04     1     1    10     2
-2.1616554000e-03     1     1    10     3
 4.5020113000e-03     1     1    10     4
-5.2884170000e-04     1     1    10     5
 2.6491680000e-04     1     1    10     6
-1.2553424000e-03     1     1    10     7
-2.5724030000e-04     1     1    10     8
 5.4587160000e-04     1     1    10     9
 3.5016257170e-01     1     1    10    10
-8.2069200000e-04     1     1    10    11
 1.7174130000e-04     1     1    10    12
 3.9824980000e-04     1     1    10    13
 2.0965140000e-04     1     1    11     2
 9.5802240000e-04     1     1    11     3
-4.4681659900e-02     1     1    11     4
-4.2083507000e-03     1     1    11     5
-2.6202690000e-04     1     1    11     6
 1.3670399000e-02     1     1    11     7
-2.8371970000e-04     1     1    11     8
-3.9338140000e-04     1     1    11     9
-8.2069200000e-04     1     1    11    10
 3.6415027460e-01     1     1    11    11
 7.2401000000e-06     1     1    11    12
-1.2497700000e-05     1     1    11    13
 7.3264000000e-05     1     1    12     2
 4.4347770000e-04     1     1    12     3
 4.1687322000e-03     1     1    12     4
-4.4718045700e-02     1     1    12     5
-1.1741220000e-04     1     1    12     6
-2.7825640000e-04     1     1    12     7
-1.3684399400e-02     1     1    12     8
-3.1480560000e-04     1     1    12     9
 1.7174130000e-04     1     1    12    10
 7.2401000000e-06     1     1    12    11
 3.6417254940e-01     1     1    12    12
 2.1858200000e-05     1     1    12    13
-5.4800833000e-03     1     1    13     2
-5.1706462500e-02     1     1    13     3
-6.4178210000e-04     1     1    13     4
-5.2013120000e-04     1     1    13     5
 4.6485689000e-03     1     1    13     6
 4.3524370000e-04     1     1    13     7
-3.8844600000e-04     1     1    13     8
 1.4049540300e-02     1     1    13     9
 3.9824980000e-04     1     1    13    10
-1.2497700000e-05     1     1    13    11
 2.1858200000e-05     1     1    13    12
 3.6780270790e-01     1     1    13    13
-2.6290341110e-01     1     2     2     1
 4.0247290700e-02     1     2     2     3
-7.8138850000e-04     1     2     2     4
-3.4316520000e-04     1     2     2     5
-5.1826079300e-02     1     2     2     6
-3.7667000000e-06     1     2     2     7
 1.0502300000e-05     1     2     2     8
-4.2738000000e-04     1     2     2     9
-1.8905400000e-05     1     2     2    10
 2.3758200000e-05     1     2     2    11
 1.0487800000e-05     1     2     2    12
-4.3144400000e-04     1     2     2    13
 5.4523300000e-03     1     2     3     1
-7.9327839200e-02     1     2     3     3
 5.8513800000e-05     1     2     3     4
 2.5746300000e-05     1     2     3     5
-9.1964270000e-03     1     2     3     6
 6.5708070000e-04     1     2     3     7
-8.0789430000e-04     1     2     3     8
 5.2521894500e-02     1     2     3     9
 5.0673380000e-04     1     2     3    10
-2.2464900000e-04     1     2     3    11
-8.2795800000e-05     1     2     3    12
 1.2301112400e-02     1     2     3    13
-9.8768500000e-05     1     2     4     1
 5.8322300000e-05     1     2     4     3
-7.6899982300e-02     1     2     4     4
-4.9700000000e-07     1     2     4     5
 1.7936010000e-04     1     2     4     6
 5.3060316900e-02     1     2     4     7
 3.8668737000e-03     1     2     4     8
-5.6191840000e-04     1     2     4     9
-1.1010777000e-03     1     2     4    10
 1.0988847600e-02     1     2     4    11
-1.0245090000e-03     1     2     4    12
 1.5527780000e-04     1     2     4    13
-4.3090800000e-05     1     2     5     1
 2.5635300000e-05     1     2     5     3
-4.9420000000e-07     1     2     5     4
-7.6902058300e-02     1     2     5     5
 7.5057800000e-05     1     2     5     6
 3.8569526000e-03     1     2     5     7
-5.3059166400e-02     1     2     5     8
-8.6750430000e-04     1     2     5     9
 1.3588560000e-04     1     2     5    10
 1.0352418000e-03     1     2     5    11
 1.0994752800e-02     1     2     5    12
 1.5002060000e-04     1     2     5    13
-7.3012111000e-02     1     2     6     1
-2.3001854000e-03     1     2     6     3
 4.4140100000e-05     1     2     6     4
 1.7575500000e-05     1     2     6     5
-8.3079014100e-02     1     2     6     6
 9.1679800000e-05     1     2     6     7
 9.5552200000e-05     1     2     6     8
-1.2109965100e-02     1     2     6     9
-2.5387900000e-04     1     2     6    10
 2.5599370000e-04     1     2     6    11
 1.0467190000e-04     1     2     6    12
-5.1575472000e-03     1     2     6    13
-2.2469710000e-04     1     2     7     1
 3.1114430000e-04     1     2     7     3
 2.4459901100e-02     1     2     7     4
 1.7773957000e-03     1     2     7     5
 1.6360400000e-05     1     2     7     6
-7.8049241000e-02     1     2     7     7
-2.6910000000e-07     1     2     7     8
-2.3443100000e-05     1     2     7     9
 7.4934300000e-04     1     2     7    10
-7.7176885000e-03     1     2     7    11
 1.5538070000e-04     1     2     7    12
-2.2733030000e-04     1     2     7    13
-2.3064720000e-04     1     2     8     1
-3.6302580000e-04     1     2     8     3
 1.7819008000e-03     1     2     8     4
-2.4459015400e-02     1     2     8     5
 1.4980500000e-05     1     2     8     6
 9.6000000000e-08     1     2     8     7
-7.8062701200e-02     1     2     8     8
 8.6301000000e-06     1     2     8     9
 1.5378650000e-04     1     2     8    10
 1.5866890000e-04     1     2     8    11
 7.7255813000e-03     1     2     8    12
 2.2736460000e-04     1     2     8    13
 2.8457200000e-02     1     2     9     1
 2.3078217400e-02     1     2     9     3
-2.3831020000e-04     1     2     9     4
-3.8992150000e-04     1     2     9     5
-2.2480227000e-03     1     2     9     6
-2.1287400000e-05     1     2     9     7
 8.9786000000e-06     1     2     9     8
-8.4251261900e-02     1     2     9     9
-3.8715660000e-04     1     2     9    10
 2.6878690000e-04     1     2     9    11
 2.0014440000e-04     1     2     9    12
-9.3528863000e-03     1     2     9    13
 2.4717400000e-04     1     2    10     1
 2.3847410000e-04     1     2    10     3
-4.9417050000e-04     1     2    10     4
 6.1612300000e-05     1     2    10     5
-1.2175660000e-04     1     2    10     6
 1.1833403000e-03     1     2    10     7
 2.4021330000e-04     1     2    10     8
-5.9503190000e-04     1     2    10     9
-7.9834094000e-02     1     2    10    10
 8.3745280000e-04     1     2    10    11
-1.7103370000e-04     1     2    10    12
-4.0239470000e-04     1     2    10    13
-2.0965140000e-04     1     2    11     1
-1.0654190000e-04     1     2    11     3
 4.8853717000e-03     1     2    11     4
 4.6037130000e-04     1     2    11     5
 1.3591000000e-04     1     2    11     6
-1.2152539700e-02     1     2    11     7
 2.5131690000e-04     1     2    11     8
 4.0957370000e-04     1     2    11     9
 8.4120040000e-04     1     2    11    10
-9.1569102300e-02     1     2    11    11
-7.7726000000e-06     1     2    11    12
 4.4216000000e-05     1     2    11    13
-7.3264000000e-05     1     2    12     1
-3.9960900000e-05     1     2    12     3
-4.5530420000e-04     1     2    12     4
 4.8879476000e-03     1     2    12     5
 5.9333700000e-05     1     2    12     6
 2.4689650000e-04     1     2    12     7
 1.2165027200e-02     1     2    12     8
 3.1339230000e-04     1     2    12     9
-1.7274470000e-04     1     2    12    10
-7.9367000000e-06     1     2    12    11
-9.1584448700e-02     1     2    12    12
-1.2270900000e-05     1     2    12    13
 5.4800833000e-03     1     2    13     1
 5.7474121000e-03     1     2    13     3
 6.5038400000e-05     1     2    13     4
 6.5066100000e-05     1     2    13     5
-2.2394699000e-03     1     2    13     6
-3.6208300000e-04     1     2    13     7
 3.4552430000e-04     1     2    13     8
-1.4277508700e-02     1     2    13     9
-4.0524650000e-04     1     2    13    10
 4.1672600000e-05     1     2    13    11
-1.3783100000e-05     1     2    13    12
-9.4194219400e-02     1     2    13    13
 5.4523300000e-03     1     3     2     1
-4.0247290700e-02     1     3     2     2
 1.9150000000e-07     1     3     2     4
 1.1100000000e-07     1     3     2     5
-6.8962416000e-03     1     3     2     6
 3.4593640000e-04     1     3     2     7
-4.4486850000e-04     1     3     2     8
 2.9443677100e-02     1     3     2     9
 2.6825970000e-04     1     3     2    10
-1.1810710000e-04     1     3     2    11
-4.2834900000e-05     1     3     2    12
 6.5537003000e-03     1     3     2    13
-3.0899569130e-01     1     3     3     1
 7.9327839200e-02     1     3     3     2
-8.6432410000e-04     1     3     3     4
-3.7985610000e-04     1     3     3     5
 2.3797988100e-02     1     3     3     6
-9.0071600000e-05     1     3     3     7
 2.1798700000e-05     1     3     3     8
 2.6535461000e-03     1     3     3     9
 1.7717381000e-03     1     3     3    10
-1.2574350000e-04     1     3     3    11
-1.7645050000e-04     1     3     3    12
 4.4224168000e-02     1     3     3    13
-3.9651000000e-06     1     3     4     1
-5.8322300000e-05     1     3     4     2
-4.4459762300e-02     1     3     4     4
 3.0000000000e-09     1     3     4     5
-6.0399600000e-05     1     3     4     6
-1.3049562000e-03     1     3     4     7
-9.6040800000e-05     1     3     4     8
 1.0901060000e-04     1     3     4     9
-3.0411763000e-03     1     3     4    10
 3.6529622200e-02     1     3     4    11
-3.4480883000e-03     1     3     4    12
 1.5213920000e-04     1     3     4    13
-1.7568000000e-06     1     3     5     1
-2.5635300000e-05     1     3     5     2
 2.4000000000e-09     1     3     5     4
-4.4460166700e-02     1     3     5     5
-2.6378600000e-05     1     3     5     6
-9.5041600000e-05     1     3     5     7
 1.3021955000e-03     1     3     5     8
 4.4723600000e-05     1     3     5     9
 4.4814300000e-05     1     3     5    10
 3.3904023000e-03     1     3     5    11
 3.6464511000e-02     1     3     5    12
 2.7890420000e-04     1     3     5    13
 3.2915786000e-03     1     3     6     1
 2.3001854000e-03     1     3     6     2
 1.9150000000e-07     1     3     6     4
-6.8700000000e-08     1     3     6     5
-4.5197293900e-02     1     3     6     6
 7.6605700000e-05     1     3     6     7
-1.3397940000e-04     1     3     6     8
 1.1141984800e-02     1     3     6     9
 1.7434400000e-04     1     3     6    10
-8.1094700000e-05     1     3     6    11
-2.6286300000e-05     1     3     6    12
 4.7187504000e-03     1     3     6    13
 7.7252330000e-04     1     3     7     1
-3.1114430000e-04     1     3     7     2
 1.6129383000e-03     1     3     7     4
 1.1749680000e-04     1     3     7     5
-2.1792450000e-04     1     3     7     6
-4.7660864400e-02     1     3     7     7
-3.0520000000e-07     1     3     7     8
 2.6251600000e-05     1     3     7     9
 9.0792900000e-04     1     3     7    10
-1.1337340600e-02     1     3     7    11
 2.4385330000e-04     1     3     7    12
-2.8982580000e-04     1     3     7    13
-9.2232940000e-04     1     3     8     1
 3.6302580000e-04     1     3     8     2
 1.1714730000e-04     1     3     8     4
-1.6125685000e-03     1     3     8     5
 2.0419390000e-04     1     3     8     6
 1.5970000000e-07     1     3     8     7
-4.7662780600e-02     1     3     8     8
-2.1026400000e-05     1     3     8     9
 1.2694190000e-04     1     3     8    10
 2.2828980000e-04     1     3     8    11
 1.1326838900e-02     1     3     8    12
 3.0724600000e-04     1     3     8    13
 6.0420372900e-02     1     3     9     1
-2.3078217400e-02     1     3     9     2
 1.5040200000e-05     1     3     9     4
-1.2611100000e-05     1     3     9     5
-1.0644542200e-02     1     3     9     6
-1.9881900000e-05     1     3     9     7
-4.1914000000e-06     1     3     9     8
-4.7416109200e-02     1     3     9     9
-4.4843130000e-04     1     3     9    10
 2.2683820000e-04     1     3     9    11
 2.2884880000e-04     1     3     9    12
-1.1947215100e-02     1     3     9    13
 2.1616554000e-03     1     3    10     1
-2.3847410000e-04     1     3    10     2
-1.5105360000e-04     1     3    10     4
 1.8160800000e-05     1     3    10     5
-5.6495400000e-05     1     3    10     6
-4.4016200000e-05     1     3    10     7
 2.4099500000e-05     1     3    10     8
 7.8511200000e-05     1     3    10     9
-4.3735322600e-02     1     3    10    10
 4.1057200000e-05     1     3    10    11
-5.5212900000e-05     1     3    10    12
-3.8082200000e-05     1     3    10    13
-9.5802240000e-04     1     3    11     1
 1.0654190000e-04     1     3    11     2
 1.4760362000e-03     1     3    11     4
 1.3800560000e-04     1     3    11     5
 2.1721700000e-05     1     3    11     6
 3.6676530000e-04     1     3    11     7
-3.4576000000e-06     1     3    11     8
 2.1167400000e-05     1     3    11     9
-8.6549200000e-05     1     3    11    10
-4.4674618800e-02     1     3    11    11
-8.6600000000e-08     1     3    11    12
 1.3377460000e-04     1     3    11    13
-4.4347770000e-04     1     3    12     1
 3.9960900000e-05     1     3    12     2
-1.3723070000e-04     1     3    12     4
 1.4776845000e-03     1     3    12     5
 9.8448000000e-06     1     3    12     6
-1.0111600000e-05     1     3    12     7
-3.5978690000e-04     1     3    12     8
-1.2828400000e-05     1     3    12     9
 4.6283600000e-05     1     3    12    10
-1.3370000000e-07     1     3    12    11
-4.4679788900e-02     1     3    12    12
 4.1715200000e-05     1     3    12    13
 5.1706462500e-02     1     3    13     1
-5.7474121000e-03     1     3    13     2
 5.3700100000e-05     1     3    13     4
 3.0992800000e-05     1     3    13     5
-1.0222673000e-03     1     3    13     6
-2.3306900000e-05     1     3    13     7
 3.9985000000e-06     1     3    13     8
 1.1623332000e-03     1     3    13     9
-1.4700900000e-05     1     3    13    10
-1.1861210000e-04     1     3    13    11
-3.1849800000e-05     1     3    13    12
-4.6199199100e-02     1     3    13    13
-9.8768500000e-05     1     4     2     1
 7.8138850000e-04     1     4     2     2
-1.9150000000e-07     1     4     2     3
-2.8000000000e-09     1     4     2     5
 1.3522000000e-04     1     4     2     6
 2.8600415800e-02     1     4     2     7
 2.0849729000e-03     1     4     2     8
-3.2360820000e-04     1     4     2     9
-6.0690720000e-04     1     4     2    10
 6.1034759000e-03     1     4     2    11
-5.6920480000e-04     1     4     2    12
 9.0239400000e-05     1     4     2    13
-3.9651000000e-06     1     4     3     1
-5.8513800000e-05     1     4     3     2
 8.6432410000e-04     1     4     3     3
 6.0000000000e-10     1     4     3     5
-6.0591100000e-05     1     4     3     6
-2.9178945000e-03     1     4     3     7
-2.1318810000e-04     1     4     3     8
 9.3970400000e-05     1     4     3     9
-2.8901227000e-03     1     4     3    10
 3.5053586000e-02     1     4     3    11
-3.3108576000e-03     1     4     3    12
 9.8439100000e-05     1     4     3    13
-3.1010146190e-01     1     4     4     1
 7.6899982300e-02     1     4     4     2
 4.4459762300e-02     1     4     4     3
-3.7962350000e-04     1     4     4     5
 2.1036695500e-02     1     4     4     6
 1.5379000000e-06     1     4     4     7
-6.0663600000e-05     1     4     4     8
 7.8032118000e-03     1     4     4     9
 3.2262961200e-02     1     4     4    10
 2.4809129000e-03     1     4     4    11
-6.8638800000e-04     1     4     4    12
-1.9369727800e-02     1     4     4    13
 4.1100000000e-08     1     4     5     1
 4.9420000000e-07     1     4     5     2
-2.4000000000e-09     1     4     5     3
 8.6379030000e-04     1     4     5     5
 5.0950000000e-07     1     4     5     6
 2.6480200000e-05     1     4     5     7
-2.2230900000e-05     1     4     5     8
-8.2550000000e-07     1     4     5     9
-4.5431016000e-03     1     4     5    10
-1.2285552000e-03     1     4     5    11
-3.5394196000e-03     1     4     5    12
 1.5982525000e-03     1     4     5    13
-6.5591900000e-05     1     4     6     1
-4.4140100000e-05     1     4     6     2
-1.9150000000e-07     1     4     6     3
 4.6000000000e-09     1     4     6     5
 8.7846420000e-04     1     4     6     6
 7.5634330000e-03     1     4     6     7
 5.5221710000e-04     1     4     6     8
-1.3408300000e-04     1     4     6     9
-3.7761760000e-04     1     4     6    10
 4.0541274000e-03     1     4     6    11
-3.7698990000e-04     1     4     6    12
 5.1947000000e-05     1     4     6    13
 6.0818121600e-02     1     4     7     1
-2.4459901100e-02     1     4     7     2
-1.6129383000e-03     1     4     7     3
 1.1894700000e-05     1     4     7     5
-1.5229024400e-02     1     4     7     6
 9.1127040000e-04     1     4     7     7
-8.2215000000e-06     1     4     7     8
 1.1143885000e-03     1     4     7     9
-6.2280108000e-03     1     4     7    10
-5.5054550000e-04     1     4     7    11
 2.4074560000e-04     1     4     7    12
 3.8384593000e-03     1     4     7    13
 4.4325614000e-03     1     4     8     1
-1.7819008000e-03     1     4     8     2
-1.1714730000e-04     1     4     8     3
 3.3500300000e-05     1     4     8     5
-1.1089645000e-03     1     4     8     6
 7.1457000000e-06     1     4     8     7
 9.2587950000e-04     1     4     8     8
 8.1317200000e-05     1     4     8     9
-1.3026549000e-03     1     4     8    10
-1.9909530000e-04     1     4     8    11
-8.1411080000e-04     1     4     8    12
 6.3935610000e-04     1     4     8    13
-6.3127000000e-04     1     4     9     1
 2.3831020000e-04     1     4     9     2
-1.5040200000e-05     1     4     9     3
 3.8470000000e-07     1     4     9     5
 8.4798900000e-05     1     4     9     6
-1.1109666000e-03     1     4     9     7
-8.0743900000e-05     1     4     9     8
 9.3759780000e-04     1     4     9     9
 4.0675890000e-04     1     4     9    10
-5.5513500000e-03     1     4     9    11
 5.1191930000e-04     1     4     9    12
 5.5090200000e-05     1     4     9    13
-4.5020113000e-03     1     4    10     1
 4.9417050000e-04     1     4    10     2
 1.5105360000e-04     1     4    10     3
-1.8277000000e-06     1     4    10     5
 1.2011540000e-04     1     4    10     6
 2.7167759000e-03     1     4    10     7
 6.5568720000e-04     1     4    10     8
-3.4564800000e-04     1     4    10     9
 7.8723940000e-04     1     4    10    10
 3.6071300000e-03     1     4    10    11
-9.6398060000e-04     1     4    10    12
-6.3889260000e-04     1     4    10    13
 4.4681659900e-02     1     4    11     1
-4.8853717000e-03     1     4    11     2
-1.4760362000e-03     1     4    11     3
 1.0005000000e-05     1     4    11     5
-9.8018470000e-04     1     4    11     6
 2.3061220000e-04     1     4    11     7
 6.4646700000e-05     1     4    11     8
 3.2632991000e-03     1     4    11     9
-2.9182988000e-03     1     4    11    10
 8.5432390000e-04     1     4    11    11
-1.0479980000e-04     1     4    11    12
 7.1358406000e-03     1     4    11    13
-4.1687322000e-03     1     4    12     1
 4.5530420000e-04     1     4    12     2
 1.3723070000e-04     1     4    12     3
-3.0637000000e-05     1     4    12     5
 9.1975300000e-05     1     4    12     6
-6.7400500000e-05     1     4    12     7
 2.3678290000e-04     1     4    12     8
-3.0268190000e-04     1     4    12     9
 6.4711270000e-04     1     4    12    10
 7.6458600000e-05     1     4    12    11
 7.9263600000e-04     1     4    12    12
-8.5152570000e-04     1     4    12    13
 6.4178210000e-04     1     4    13     1
-6.5038400000e-05     1     4    13     2
-5.3700100000e-05     1     4    13     3
-2.0680000000e-07     1     4    13     5
-1.5894300000e-05     1     4    13     6
-7.4147620000e-04     1     4    13     7
-1.6962280000e-04     1     4    13     8
 6.9407700000e-05     1     4    13     9
 3.7669390000e-04     1     4    13    10
-5.5631692000e-03     1     4    13    11
 7.1827230000e-04     1     4    13    12
 9.0569900000e-04     1     4    13    13
-4.3090800000e-05     1     5     2     1
 3.4316520000e-04     1     5     2     2
-1.1100000000e-07     1     5     2     3
 2.8000000000e-09     1     5     2     4
 5.7482300000e-05     1     5     2     6
 2.0795569000e-03     1     5     2     7
-2.8600151000e-02     1     5     2     8
-4.7758280000e-04     1     5     2     9
 7.4273300000e-05     1     5     2    10
 5.7487050000e-04     1     5     2    11
 6.1068052000e-03     1     5     2    12
 8.4954500000e-05     1     5     2    13
-1.7568000000e-06     1     5     3     1
-2.5746300000e-05     1     5     3     2
 3.7985610000e-04     1     5     3     3
-6.0000000000e-10     1     5     3     4
-2.6309900000e-05     1     5     3     6
-2.1253840000e-04     1     5     3     7
 2.9147640000e-03     1     5     3     8
 5.7334700000e-05     1     5     3     9
 2.6653500000e-05     1     5     3    10
 3.2523967000e-03     1     5     3    11
 3.4986826500e-02     1     5     3    12
 2.4791140000e-04     1     5     3    13
 4.1100000000e-08     1     5     4     1
 4.9700000000e-07     1     5     4     2
-3.0000000000e-09     1     5     4     3
 3.7962350000e-04     1     5     4     4
 5.0490000000e-07     1     5     4     6
 1.4585500000e-05     1     5     4     7
-5.5731200000e-05     1     5     4     8
-1.2102000000e-06     1     5     4     9
-4.5412739000e-03     1     5     4    10
-1.2385602000e-03     1     5     4    11
-3.5087826000e-03     1     5     4    12
 1.5984593000e-03     1     5     4    13
-3.1010740770e-01     1     5     5     1
 7.6902058300e-02     1     5     5     2
 4.4460166700e-02     1     5     5     3
-8.6379030000e-04     1     5     5     4
 2.1037440200e-02     1     5     5     6
-7.6977400000e-05     1     5     5     7
-1.0641370000e-04     1     5     5     8
 7.8044261000e-03     1     5     5     9
-3.3682823700e-02     1     5     5    10
-2.6514422000e-03     1     5     5    11
 7.4609020000e-04     1     5     5    12
-1.7086790400e-02     1     5     5    13
-3.3168200000e-05     1     5     6     1
-1.7575500000e-05     1     5     6     2
 6.8700000000e-08     1     5     6     3
-4.6000000000e-09     1     5     6     4
 3.8730890000e-04     1     5     6     6
 5.5027470000e-04     1     5     6     7
-7.5676271000e-03     1     5     6     8
-1.6870180000e-04     1     5     6     9
 4.5327500000e-05     1     5     6    10
 3.8088040000e-04     1     5     6    11
 4.0573455000e-03     1     5     6    12
 5.7765500000e-05     1     5     6    13
 4.4208092000e-03     1     5     7     1
-1.7773957000e-03     1     5     7     2
-1.1749680000e-04     1     5     7     3
-1.1894700000e-05     1     5     7     4
-1.1066401000e-03     1     5     7     6
 4.0670180000e-04     1     5     7     7
-8.7063000000e-06     1     5     7     8
 8.0902400000e-05     1     5     7     9
 1.3052482000e-03     1     5     7    10
 3.2897850000e-04     1     5     7    11
 6.1640580000e-04     1     5     7    12
-1.1826500000e-04     1     5     7    13
-6.0818232900e-02     1     5     8     1
 2.4459015400e-02     1     5     8     2
 1.6125685000e-03     1     5     8     3
-3.3500300000e-05     1     5     8     4
 1.5225783400e-02     1     5     8     6
 8.7333000000e-06     1     5     8     7
 4.0790100000e-04     1     5     8     8
-1.1150188000e-03     1     5     8     9
-6.4386301000e-03     1     5     8    10
-6.1447830000e-04     1     5     8    11
 2.7250260000e-04     1     5     8    12
-3.3458326000e-03     1     5     8    13
-1.0001578000e-03     1     5     9     1
 3.8992150000e-04     1     5     9     2
 1.2611100000e-05     1     5     9     3
-3.8470000000e-07     1     5     9     4
 2.0097870000e-04     1     5     9     6
-8.0535600000e-05     1     5     9     7
 1.1110630000e-03     1     5     9     8
 4.0578740000e-04     1     5     9     9
-9.3940400000e-05     1     5     9    10
-5.2634980000e-04     1     5     9    11
-5.5418657000e-03     1     5     9    12
-5.1045100000e-05     1     5     9    13
 5.2884170000e-04     1     5    10     1
-6.1612300000e-05     1     5    10     2
-1.8160800000e-05     1     5    10     3
 1.8277000000e-06     1     5    10     4
-1.5283200000e-05     1     5    10     6
-6.6049090000e-04     1     5    10     7
 2.8240148000e-03     1     5    10     8
 6.3112000000e-05     1     5    10     9
 3.8881420000e-04     1     5    10    10
-1.0239014000e-03     1     5    10    11
-4.1111898000e-03     1     5    10    12
-1.4312900000e-05     1     5    10    13
 4.2083507000e-03     1     5    11     1
-4.6037130000e-04     1     5    11     2
-1.3800560000e-04     1     5    11     3
-1.0005000000e-05     1     5    11     4
-9.2941600000e-05     1     5    11     6
-8.5521400000e-05     1     5    11     7
 1.5197810000e-04     1     5    11     8
 3.0647120000e-04     1     5    11     9
 7.0620100000e-04     1     5    11    10
 3.5967370000e-04     1     5    11    11
 1.4903340000e-04     1     5    11    12
 4.6188890000e-04     1     5    11    13
 4.4718045700e-02     1     5    12     1
-4.8879476000e-03     1     5    12     2
-1.4776845000e-03     1     5    12     3
 3.0637000000e-05     1     5    12     4
-9.7965370000e-04     1     5    12     6
-2.4520590000e-04     1     5    12     7
-1.3442740000e-04     1     5    12     8
 3.2589343000e-03     1     5    12     9
 3.4287077000e-03     1     5    12    10
-2.0565040000e-04     1     5    12    11
 3.8987470000e-04     1     5    12    12
 6.8702332000e-03     1     5    12    13
 5.2013120000e-04     1     5    13     1
-6.5066100000e-05     1     5    13     2
-3.0992800000e-05     1     5    13     3
 2.0680000000e-07     1     5    13     4