&FCI NORB= 13,NELEC=  2,MS2=0,
 ORBSYM=1,1,1,1,1,1,1,1,1,1,1,1,1
 ISYM=1,
&END
 3.0349792330e-01     1     1     2     2
-1.8383850000e-04     1     1     2     3
-3.5208000000e-04     1     1     2     4
-1.1358385300e-02     1     1     2     5
 8.8420504000e-02     1     1     2     6
 8.6555600000e-05     1     1     2     7
-3.2684500000e-05     1     1     2     8
-1.3669316100e-02     1     1     2     9
-4.8439000000e-06     1     1     2    10
 2.6081760000e-04     1     1     2    11
 1.6818293000e-03     1     1     2    12
-2.7602239000e-03     1     1     2    13
-1.8383850000e-04     1     1     3     2
 3.3311039820e-01     1     1     3     3
 2.5856000000e-06     1     1     3     4
 7.6339400000e-05     1     1     3     5
-3.7893500000e-05     1     1     3     6
 5.8983536300e-02     1     1     3     7
 2.7045466700e-02     1     1     3     8
-1.0851962000e-03     1     1     3     9
-1.1427700000e-05     1     1     3    10
 9.0633700000e-05     1     1     3    11
-2.3844420700e-02     1     1     3    12
 3.8819212600e-02     1     1     3    13
-3.5208000000e-04     1     1     4     2
 2.5856000000e-06     1     1     4     3
 3.3311645230e-01     1     1     4     4
 1.4631490000e-04     1     1     4     5
 6.1778700000e-05     1     1     4     6
-2.7063897100e-02     1     1     4     7
 5.8943476200e-02     1     1     4     8
-2.0728050000e-03     1     1     4     9
-7.1995100000e-05     1     1     4    10
-1.1825900000e-05     1     1     4    11
-3.9894354300e-02     1     1     4    12
-2.4967603500e-02     1     1     4    13
-1.1358385300e-02     1     1     5     2
 7.6339400000e-05     1     1     5     3
 1.4631490000e-04     1     1     5     4
 3.3861393210e-01     1     1     5     5
 1.0819368000e-03     1     1     5     6
-1.1998240000e-04     1     1     5     7
-2.3715749000e-03     1     1     5     8
-6.2844498800e-02     1     1     5     9
-1.6475400000e-05     1     1     5    10
 9.9975740000e-04     1     1     5    11
 8.1255053000e-03     1     1     5    12
-1.0545255600e-02     1     1     5    13
 8.8420504000e-02     1     1     6     2
-3.7893500000e-05     1     1     6     3
 6.1778700000e-05     1     1     6     4
 1.0819368000e-03     1     1     6     5
 3.8557606300e-01     1     1     6     6
 1.3282300000e-05     1     1     6     7
 5.7256000000e-06     1     1     6     8
 4.6256070000e-03     1     1     6     9
 1.6139000000e-06     1     1     6    10
 1.2932500000e-05     1     1     6    11
 2.2438530000e-04     1     1     6    12
-3.9167080000e-04     1     1     6    13
 8.6555600000e-05     1     1     7     2
 5.8983536300e-02     1     1     7     3
-2.7063897100e-02     1     1     7     4
-1.1998240000e-04     1     1     7     5
 1.3282300000e-05     1     1     7     6
 3.8685406700e-01     1     1     7     7
 8.2440000000e-07     1     1     7     8
 4.2609000000e-06     1     1     7     9
 1.5770600000e-05     1     1     7    10
 2.7023200000e-05     1     1     7    11
-1.1466067000e-03     1     1     7    12
 1.0434518800e-02     1     1     7    13
-3.2684500000e-05     1     1     8     2
 2.7045466700e-02     1     1     8     3
 5.8943476200e-02     1     1     8     4
-2.3715749000e-03     1     1     8     5
 5.7256000000e-06     1     1     8     6
 8.2440000000e-07     1     1     8     7
 3.8685043760e-01     1     1     8     8
-2.9929700000e-05     1     1     8     9
-2.3538500000e-05     1     1     8    10
-9.6783000000e-06     1     1     8    11
-1.0607658900e-02     1     1     8    12
-1.3922234000e-03     1     1     8    13
-1.3669316100e-02     1     1     9     2
-1.0851962000e-03     1     1     9     3
-2.0728050000e-03     1     1     9     4
-6.2844498800e-02     1     1     9     5
 4.6256070000e-03     1     1     9     6
 4.2609000000e-06     1     1     9     7
-2.9929700000e-05     1     1     9     8
 4.1333241450e-01     1     1     9     9
 5.6661000000e-06     1     1     9    10
-1.1369480000e-04     1     1     9    11
-8.4278350000e-04     1     1     9    12
 1.3884899000e-03     1     1     9    13
-4.8439000000e-06     1     1    10     2
-1.1427700000e-05     1     1    10     3
-7.1995100000e-05     1     1    10     4
-1.6475400000e-05     1     1    10     5
 1.6139000000e-06     1     1    10     6
 1.5770600000e-05     1     1    10     7
-2.3538500000e-05     1     1    10     8
 5.6661000000e-06     1     1    10     9
 3.7654005640e-01     1     1    10    10
-6.1400000000e-08     1     1    10    11
 1.5473100000e-05     1     1    10    12
 1.5853700000e-05     1     1    10    13
 2.6081760000e-04     1     1    11     2
 9.0633700000e-05     1     1    11     3
-1.1825900000e-05     1     1    11     4
 9.9975740000e-04     1     1    11     5
 1.2932500000e-05     1     1    11     6
 2.7023200000e-05     1     1    11     7
-9.6783000000e-06     1     1    11     8
-1.1369480000e-04     1     1    11     9
-6.1400000000e-08     1     1    11    10
 3.7652937660e-01     1     1    11    11
 1.7814700000e-05     1     1    11    12
-2.3449700000e-05     1     1    11    13
 1.6818293000e-03     1     1    12     2
-2.3844420700e-02     1     1    12     3
-3.9894354300e-02     1     1    12     4
 8.1255053000e-03     1     1    12     5
 2.2438530000e-04     1     1    12     6
-1.1466067000e-03     1     1    12     7
-1.0607658900e-02     1     1    12     8
-8.4278350000e-04     1     1    12     9
 1.5473100000e-05     1     1    12    10
 1.7814700000e-05     1     1    12    11
 3.9054186890e-01     1     1    12    12
-5.3220400000e-05     1     1    12    13
-2.7602239000e-03     1     1    13     2
 3.8819212600e-02     1     1    13     3
-2.4967603500e-02     1     1    13     4
-1.0545255600e-02     1     1    13     5
-3.9167080000e-04     1     1    13     6
 1.0434518800e-02     1     1    13     7
-1.3922234000e-03     1     1    13     8
 1.3884899000e-03     1     1    13     9
 1.5853700000e-05     1     1    13    10
-2.3449700000e-05     1     1    13    11
-5.3220400000e-05     1     1    13    12
 3.9061145280e-01     1     1    13    13
-3.0349792330e-01     1     2     2     1
 6.6287320000e-04     1     2     2     3
 1.2703466000e-03     1     2     2     4
 4.0576178100e-02     1     2     2     5
-5.6448762200e-02     1     2     2     6
-5.8277400000e-05     1     2     2     7
-4.1617000000e-06     1     2     2     8
-1.1608783400e-02     1     2     2     9
 8.0300000000e-07     1     2     2    10
-9.9810800000e-05     1     2     2    11
-6.5616180000e-04     1     2     2    12
 1.0887050000e-03     1     2     2    13
 1.8383850000e-04     1     2     3     1
-8.3471340000e-02     1     2     3     3
-1.5019000000e-06     1     2     3     4
-4.2138600000e-05     1     2     3     5
-1.8607770000e-04     1     2     3     6
-4.8945357300e-02     1     2     3     7
-2.2442183200e-02     1     2     3     8
 8.9590750000e-04     1     2     3     9
-1.3460000000e-06     1     2     3    10
-2.8524100000e-05     1     2     3    11
 6.7581912000e-03     1     2     3    12
-1.1007981800e-02     1     2     3    13
 3.5208000000e-04     1     2     4     1
-1.5815000000e-06     1     2     4     3
-8.3474532800e-02     1     2     4     4
-8.0762000000e-05     1     2     4     5
-4.7037660000e-04     1     2     4     6
 2.2459384100e-02     1     2     4     7
-4.8912464900e-02     1     2     4     8
 1.7116415000e-03     1     2     4     9
 2.8525900000e-05     1     2     4    10
 9.6469000000e-06     1     2     4    11
 1.1315258500e-02     1     2     4    12
 7.0621975000e-03     1     2     4    13
 1.1358385300e-02     1     2     5     1
-4.4464600000e-05     1     2     5     3
-8.5243300000e-05     1     2     5     4
-8.6458247700e-02     1     2     5     5
-1.3977148400e-02     1     2     5     6
 8.7665500000e-05     1     2     5     7
 1.9747090000e-03     1     2     5     8
 5.1925738600e-02     1     2     5     9
 6.1600000000e-06     1     2     5    10
-2.6968560000e-04     1     2     5    11
-2.2679508000e-03     1     2     5    12
 2.8578296000e-03     1     2     5    13
-8.8420504000e-02     1     2     6     1
-3.9482600000e-05     1     2     6     3
-1.1486030000e-04     1     2     6     4
-3.2737603000e-03     1     2     6     5
-9.3100282100e-02     1     2     6     6
-1.2302800000e-05     1     2     6     7
-6.9933000000e-06     1     2     6     8
-1.0462760800e-02     1     2     6     9
-1.8056000000e-06     1     2     6    10
-3.3391000000e-06     1     2     6    11
-7.4247400000e-05     1     2     6    12
 1.3454670000e-04     1     2     6    13
-8.6555600000e-05     1     2     7     1
-1.6708769600e-02     1     2     7     3
 7.6647497000e-03     1     2     7     4
 3.1129900000e-05     1     2     7     5
-1.0939000000e-05     1     2     7     6
-9.1088339000e-02     1     2     7     7
-1.7448000000e-06     1     2     7     8
-9.1365000000e-06     1     2     7     9
-3.5860000000e-07     1     2     7    10
-8.6940000000e-06     1     2     7    11
 5.4718420000e-04     1     2     7    12
-5.0124073000e-03     1     2     7    13
 3.2684500000e-05     1     2     8     1
-7.6589264000e-03     1     2     8     3
-1.6697226100e-02     1     2     8     4
 6.6802140000e-04     1     2     8     5
 2.2608000000e-06     1     2     8     6
 3.7350000000e-07     1     2     8     7
-9.1087035800e-02     1     2     8     8
 1.3133300000e-05     1     2     8     9
 6.2292000000e-06     1     2     8    10
 1.2560000000e-06     1     2     8    11
 5.1001202000e-03     1     2     8    12
 6.6322980000e-04     1     2     8    13
 1.3669316100e-02     1     2     9     1
 2.9166820000e-04     1     2     9     3
 5.5719060000e-04     1     2     9     4
 1.6960618300e-02     1     2     9     5
-8.4488210000e-04     1     2     9     6
 7.1900000000e-08     1     2     9     7
 3.6227000000e-06     1     2     9     8
-1.0723987250e-01     1     2     9     9
-4.1894000000e-06     1     2     9    10
 1.1553290000e-04     1     2     9    11
 7.5453770000e-04     1     2     9    12
-1.2658735000e-03     1     2     9    13
 4.8439000000e-06     1     2    10     1
-2.8371000000e-06     1     2    10     3
 1.3569700000e-05     1     2    10     4
 2.1853000000e-06     1     2    10     5
-2.2470000000e-07     1     2    10     6
-5.1059000000e-06     1     2    10     7
 1.5249000000e-05     1     2    10     8
-5.2877000000e-06     1     2    10     9
-8.1227005900e-02     1     2    10    10
 3.7000000000e-08     1     2    10    11
-6.6177000000e-06     1     2    10    12
-1.6053000000e-06     1     2    10    13
-2.6081760000e-04     1     2    11     1
-1.0740100000e-05     1     2    11     3
 6.0681000000e-06     1     2    11     4
-9.1515200000e-05     1     2    11     5
-5.5686200000e-05     1     2    11     6
-1.9001800000e-05     1     2    11     7
 3.9452000000e-06     1     2    11     8
 1.9315670000e-04     1     2    11     9
 3.3400000000e-08     1     2    11    10
-8.1222060800e-02     1     2    11    11
-1.8004300000e-05     1     2    11    12
 2.3061700000e-05     1     2    11    13
-1.6818293000e-03     1     2    12     1
 2.1113360000e-03     1     2    12     3
 3.5352994000e-03     1     2    12     4
-7.6134740000e-04     1     2    12     5
-4.0693990000e-04     1     2    12     6
 1.0428947000e-03     1     2    12     7
 9.6567533000e-03     1     2    12     8
 1.2506586000e-03     1     2    12     9
-6.9905000000e-06     1     2    12    10
-1.8048700000e-05     1     2    12    11
-9.1837211800e-02     1     2    12    12
 3.9266000000e-05     1     2    12    13
 2.7602239000e-03     1     2    13     1
-3.4394325000e-03     1     2    13     3
 2.2085416000e-03     1     2    13     4
 9.6517010000e-04     1     2    13     5
 6.8148860000e-04     1     2    13     6
-9.4973550000e-03     1     2    13     7
 1.2662551000e-03     1     2    13     8
-2.1065422000e-03     1     2    13     9
-1.8762000000e-06     1     2    13    10
 2.3202500000e-05     1     2    13    11
 3.8544000000e-05     1     2    13    12
-9.1899029700e-02     1     2    13    13
 1.8383850000e-04     1     3     2     1
-6.6287320000e-04     1     3     2     2
 7.9600000000e-08     1     3     2     4
 2.3260000000e-06     1     3     2     5
-1.4659510000e-04     1     3     2     6
-3.2236587700e-02     1     3     2     7
-1.4783256800e-02     1     3     2     8
 6.0423930000e-04     1     3     2     9
 1.4911000000e-06     1     3     2    10
-1.7784000000e-05     1     3     2    11
 4.6468552000e-03     1     3     2    12
-7.5685493000e-03     1     3     2    13
-3.3311039820e-01     1     3     3     1
 8.3471340000e-02     1     3     3     2
 1.2801395000e-03     1     3     3     4
 4.1037971100e-02     1     3     3     5
 1.5980301600e-02     1     3     3     6
 1.9049610000e-04     1     3     3     7
 1.1924200000e-04     1     3     3     8
 7.9605323000e-03     1     3     3     9
-2.9854851100e-02     1     3     3    10
-2.0500213700e-02     1     3     3    11
 3.2211615000e-03     1     3     3    12
-5.1541401000e-03     1     3     3    13
-2.5856000000e-06     1     3     4     1
 1.5815000000e-06     1     3     4     2
-6.6787430000e-04     1     3     4     4
-1.2600000000e-07     1     3     4     5
 5.6781000000e-06     1     3     4     6
 1.4009280000e-04     1     3     4     7
 1.6803210000e-04     1     3     4     8
-1.4570000000e-06     1     3     4     9
-2.1184472200e-02     1     3     4    10
 3.0315389900e-02     1     3     4    11
 1.1083282000e-03     1     3     4    12
-5.7708880000e-04     1     3     4    13
-7.6339400000e-05     1     3     5     1
 4.4464600000e-05     1     3     5     2
-5.3100000000e-08     1     3     5     4
-6.7465660000e-04     1     3     5     5
 1.7255640000e-04     1     3     5     6
 5.6365857000e-03     1     3     5     7
 2.5813154000e-03     1     3     5     8
-1.5629820000e-04     1     3     5     9
 1.1620660000e-03     1     3     5    10
-6.9026270000e-04     1     3     5    11
 1.9284521600e-02     1     3     5    12
-3.1428193500e-02     1     3     5    13
 3.7893500000e-05     1     3     6     1
 3.9482600000e-05     1     3     6     2
-8.0900000000e-08     1     3     6     4
-2.5345000000e-06     1     3     6     5
-6.7074390000e-04     1     3     6     6
-4.0909415000e-03     1     3     6     7
-1.8770387000e-03     1     3     6     8
 2.6136980000e-04     1     3     6     9
 3.3777000000e-06     1     3     6    10
-2.6188000000e-06     1     3     6    11
 1.9978749000e-03     1     3     6    12
-3.2575436000e-03     1     3     6    13
-5.8983536300e-02     1     3     7     1
 1.6708769600e-02     1     3     7     2
 1.8210500000e-05     1     3     7     4
 3.7298190000e-04     1     3     7     5
 1.6548649500e-02     1     3     7     6
-7.0648610000e-04     1     3     7     7
 1.0669200000e-05     1     3     7     8
 5.4136452000e-03     1     3     7     9
-3.2792866000e-03     1     3     7    10
-5.1050781000e-03     1     3     7    11
 6.9447040000e-04     1     3     7    12
-1.2523179000e-03     1     3     7    13
-2.7045466700e-02     1     3     8     1
 7.6589264000e-03     1     3     8     2
-8.0170000000e-07     1     3     8     4
 1.7194510000e-04     1     3     8     5
 7.5876971000e-03     1     3     8     6
 1.7108100000e-05     1     3     8     7
-7.3015380000e-04     1     3     8     8
 2.4827925000e-03     1     3     8     9
-5.1860913000e-03     1     3     8    10
 2.8484525000e-03     1     3     8    11
 4.7873460000e-04     1     3     8    12
-4.6363140000e-04     1     3     8    13
 1.0851962000e-03     1     3     9     1
-2.9166820000e-04     1     3     9     2
-4.4400000000e-08     1     3     9     4
-1.4870000000e-06     1     3     9     5
-1.4332410000e-04     1     3     9     6
 3.2100020000e-03     1     3     9     7
 1.4710510000e-03     1     3     9     8
-7.7711600000e-04     1     3     9     9
 1.4948900000e-05     1     3     9    10
 6.6582000000e-06     1     3     9    11
-1.8607670000e-03     1     3     9    12
 3.0323251000e-03     1     3     9    13
 1.1427700000e-05     1     3    10     1
 2.8371000000e-06     1     3    10     2
 1.4499999999e-08     1     3    10     4
-2.1071000000e-06     1     3    10     5
-2.9190000000e-07     1     3    10     6
 2.0939099000e-03     1     3    10     7
 4.3455228000e-03     1     3    10     8
-6.4690000000e-07     1     3    10     9
-6.8048680000e-04     1     3    10    10
-5.5217000000e-06     1     3    10    11
-3.8815014000e-03     1     3    10    12
 1.1968369000e-03     1     3    10    13
-9.0633700000e-05     1     3    11     1
 1.0740100000e-05     1     3    11     2
 4.0670000000e-07     1     3    11     4
 2.3700000000e-06     1     3    11     5
 2.2460000000e-06     1     3    11     6
 4.2696496000e-03     1     3    11     7
-2.9786738000e-03     1     3    11     8
 2.4589000000e-06     1     3    11     9
 2.9890000000e-06     1     3    11    10
-6.7857630000e-04     1     3    11    11
 2.2288694000e-03     1     3    11    12
 3.7475333000e-03     1     3    11    13
 2.3844420700e-02     1     3    12     1
-2.1113360000e-03     1     3    12     2
-1.4348000000e-06     1     3    12     4
-4.5170010000e-04     1     3    12     5
-1.1726569000e-03     1     3    12     6
-6.5133500000e-05     1     3    12     7
-6.6601500000e-05     1     3    12     8
 2.8504158000e-03     1     3    12     9
 2.9847828000e-03     1     3    12    10
-1.1557951000e-03     1     3    12    11
-8.0149300000e-04     1     3    12    12
 1.5589990000e-04     1     3    12    13
-3.8819212600e-02     1     3    13     1
 3.4394325000e-03     1     3    13     2
 2.8734500000e-05     1     3    13     4
 7.3775020000e-04     1     3    13     5
 1.9074271000e-03     1     3    13     6
 1.3467150000e-04     1     3    13     7
 1.8318200000e-05     1     3    13     8
-4.6370945000e-03     1     3    13     9
-1.4988634000e-03     1     3    13    10
-2.8830030000e-03     1     3    13    11
 1.7387960000e-04     1     3    13    12
-9.8019670000e-04     1     3    13    13
 3.5208000000e-04     1     4     2     1
-1.2703466000e-03     1     4     2     2
-7.9600000000e-08     1     4     2     3
 4.4813000000e-06     1     4     2     5
-3.5551630000e-04     1     4     2     6
 1.4794634400e-02     1     4     2     7
-3.2215238800e-02     1     4     2     8
 1.1544509000e-03     1     4     2     9
 1.4956200000e-05     1     4     2    10
 3.5788000000e-06     1     4     2    11
 7.7799591000e-03     1     4     2    12
 4.8536559000e-03     1     4     2    13
-2.5856000000e-06     1     4     3     1
 1.5019000000e-06     1     4     3     2
-1.2801395000e-03     1     4     3     3
-7.2900000000e-08     1     4     3     5
 5.7590000000e-06     1     4     3     6
 1.2188230000e-04     1     4     3     7
 1.6883380000e-04     1     4     3     8
-1.4126000000e-06     1     4     3     9
-2.1184486700e-02     1     4     3    10
 3.0314983200e-02     1     4     3    11
 1.1097630000e-03     1     4     3    12
-6.0582330000e-04     1     4     3    13
-3.3311645230e-01     1     4     4     1
 8.3474532800e-02     1     4     4     2
 6.6787430000e-04     1     4     4     3
 4.1038128800e-02     1     4     4     5
 1.5989490000e-02     1     4     4     6
-1.3109930000e-04     1     4     4     7
 3.6673310000e-04     1     4     4     8
 7.9544075000e-03     1     4     4     9
 2.9848385900e-02     1     4     4    10
 2.1205872500e-02     1     4     4    11
 4.4133964000e-03     1     4     4    12
-2.8590946000e-03     1     4     4    13
-1.4631490000e-04     1     4     5     1
 8.5243300000e-05     1     4     5     2
 5.3100000000e-08     1     4     5     3
-1.2931362000e-03     1     4     5     5
 3.4909080000e-04     1     4     5     6
-2.5908614000e-03     1     4     5     7
 5.6272147000e-03     1     4     5     8
-2.9960390000e-04     1     4     5     9
-5.2913180000e-04     1     4     5    10
-1.1522657000e-03     1     4     5    11
 3.2240281700e-02     1     4     5    12
 2.0419435000e-02     1     4     5    13
-6.1778700000e-05     1     4     6     1
 1.1486030000e-04     1     4     6     2
 8.0900000000e-08     1     4     6     3
-4.1656000000e-06     1     4     6     5
-1.2466304000e-03     1     4     6     6
 1.8787298000e-03     1     4     6     7
-4.0879460000e-03     1     4     6     8
 5.1487340000e-04     1     4     6     9
 1.2220700000e-05     1     4     6    10
-1.8438000000e-06     1     4     6    11
 3.3484665000e-03     1     4     6    12
 2.1067033000e-03     1     4     6    13
 2.7063897100e-02     1     4     7     1
-7.6647497000e-03     1     4     7     2
-1.8210500000e-05     1     4     7     3
-1.7163930000e-04     1     4     7     5
-7.5933168000e-03     1     4     7     6
-1.4097496000e-03     1     4     7     7
-1.7005800000e-05     1     4     7     8
-2.4839296000e-03     1     4     7     9
-5.1833374000e-03     1     4     7    10
 2.7715041000e-03     1     4     7    11
-2.5703810000e-04     1     4     7    12
 1.7415040000e-04     1     4     7    13
-5.8943476200e-02     1     4     8     1
 1.6697226100e-02     1     4     8     2
 8.0170000000e-07     1     4     8     3
 3.7329950000e-04     1     4     8     5
 1.6537910500e-02     1     4     8     6
 6.1809000000e-06     1     4     8     7
-1.3792215000e-03     1     4     8     8
 5.4100938000e-03     1     4     8     9
 3.2790269000e-03     1     4     8    10
 5.2732847000e-03     1     4     8    11
 9.6891670000e-04     1     4     8    12
-1.0167326000e-03     1     4     8    13
 2.0728050000e-03     1     4     9     1
-5.5719060000e-04     1     4     9     2
 4.4400000000e-08     1     4     9     3
-2.7745000000e-06     1     4     9     5
-2.6416750000e-04     1     4     9     6
-1.4732186000e-03     1     4     9     7
 3.2071415000e-03     1     4     9     8
-1.4889012000e-03     1     4     9     9
-2.1921300000e-05     1     4     9    10
-1.7373500000e-05     1     4     9    11
-3.1093688000e-03     1     4     9    12
-1.9700993000e-03     1     4     9    13
 7.1995100000e-05     1     4    10     1
-1.3569700000e-05     1     4    10     2
-1.4499999999e-08     1     4    10     3
-3.1500000000e-07     1     4    10     5
-1.0426800000e-05     1     4    10     6
 4.3417011000e-03     1     4    10     7
-2.0937665000e-03     1     4    10     8
-4.8503000000e-06     1     4    10     9
-1.3023815000e-03     1     4    10    10
 3.1121000000e-06     1     4    10    11
 1.3072640000e-03     1     4    10    12
 3.8540430000e-03     1     4    10    13
 1.1825900000e-05     1     4    11     1
-6.0681000000e-06     1     4    11     2
-4.0670000000e-07     1     4    11     3
 1.1255000000e-06     1     4    11     5
-3.4910000000e-07     1     4    11     6
-2.9635862000e-03     1     4    11     7
-4.3029118000e-03     1     4    11     8
 7.5000000000e-07     1     4    11     9
-3.9865000000e-06     1     4    11    10
-1.3028901000e-03     1     4    11    11
 3.9505163000e-03     1     4    11    12
-1.9841075000e-03     1     4    11    13
 3.9894354300e-02     1     4    12     1
-3.5352994000e-03     1     4    12     2
 1.4348000000e-06     1     4    12     3
-7.6004260000e-04     1     4    12     5
-1.9610089000e-03     1     4    12     6
 1.0605000000e-06     1     4    12     7
-1.0426280000e-04     1     4    12     8
 4.7685125000e-03     1     4    12     9
-1.5901469000e-03     1     4    12    10
-3.0950917000e-03     1     4    12    11
-1.5398757000e-03     1     4    12    12
 1.5862503000e-03     1     4    12    13
 2.4967603500e-02     1     4    13     1
-2.2085416000e-03     1     4    13     2
-2.8734500000e-05     1     4    13     3
-4.6473580000e-04     1     4    13     5
-1.2276342000e-03     1     4    13     6
 2.5530600000e-05     1     4    13     7
 9.9731700000e-05     1     4    13     8
 2.9777766000e-03     1     4    13     9
-2.9874843000e-03     1     4    13    10
 9.3656490000e-04     1     4    13    11
-1.5004463000e-03     1     4    13    12
-1.1711689000e-03     1     4    13    13
 1.1358385300e-02     1     5     2     1
-4.0576178100e-02     1     5     2     2
-2.3260000000e-06     1     5     2     3
-4.4813000000e-06     1     5     2     4
-1.0703388100e-02     1     5     2     6
 5.6535600000e-05     1     5     2     7
 1.3066876000e-03     1     5     2     8
 3.4965120300e-02     1     5     2     9
 3.9747000000e-06     1     5     2    10
-1.7817040000e-04     1     5     2    11
-1.5066034000e-03     1     5     2    12
 1.8926595000e-03     1     5     2    13
-7.6339400000e-05     1     5     3     1
 4.2138600000e-05     1     5     3     2
-4.1037971100e-02     1     5     3     3
 7.2900000000e-08     1     5     3     4
 1.7509090000e-04     1     5     3     6
 5.2636038000e-03     1     5     3     7
 2.4093703000e-03     1     5     3     8
-1.5481120000e-04     1     5     3     9
 1.1641731000e-03     1     5     3    10
-6.9263270000e-04     1     5     3    11
 1.9736221700e-02     1     5     3    12
-3.2165943700e-02     1     5     3    13
-1.4631490000e-04     1     5     4     1
 8.0762000000e-05     1     5     4     2
 1.2600000000e-07     1     5     4     3
-4.1038128800e-02     1     5     4     4
 3.5325640000e-04     1     5     4     6
-2.4192221000e-03     1     5     4     7
 5.2539152000e-03     1     5     4     8
-2.9682940000e-04     1     5     4     9
-5.2881680000e-04     1     5     4    10
-1.1533912000e-03     1     5     4    11
 3.3000324300e-02     1     5     4    12
 2.0884170800e-02     1     5     4    13
-3.3861393210e-01     1     5     5     1
 8.6458247700e-02     1     5     5     2
 6.7465660000e-04     1     5     5     3
 1.2931362000e-03     1     5     5     4
 2.7022135400e-02     1     5     5     6
 3.1240000000e-06     1     5     5     7
-4.5642800000e-04     1     5     5     8
-1.7070586000e-03     1     5     5     9
 8.9273000000e-06     1     5     5    10
-8.0505360000e-04     1     5     5    11
-8.2753580000e-03     1     5     5    12
 9.0033200000e-03     1     5     5    13
-1.0819368000e-03     1     5     6     1
 3.2737603000e-03     1     5     6     2
 2.5345000000e-06     1     5     6     3
 4.1656000000e-06     1     5     6     4
-4.0125771600e-02     1     5     6     6
 1.2794300000e-05     1     5     6     7
 1.6409450000e-04     1     5     6     8
 1.5616362400e-02     1     5     6     9
 2.6100000000e-06     1     5     6    10
-1.0303530000e-04     1     5     6    11
-8.8399000000e-04     1     5     6    12
 1.2242324000e-03     1     5     6    13
 1.1998240000e-04     1     5     7     1
-3.1129900000e-05     1     5     7     2
-3.7298190000e-04     1     5     7     3
 1.7163930000e-04     1     5     7     4
-3.0197600000e-05     1     5     7     6
-4.4935988600e-02     1     5     7     7
 7.9840000000e-07     1     5     7     8
 4.4975000000e-06     1     5     7     9
 1.9894610000e-04     1     5     7    10
-3.0321700000e-05     1     5     7    11
 1.1607212000e-03     1     5     7    12
-1.0501762200e-02     1     5     7    13
 2.3715749000e-03     1     5     8     1
-6.6802140000e-04     1     5     8     2
-1.7194510000e-04     1     5     8     3
-3.7329950000e-04     1     5     8     4
-6.5870640000e-04     1     5     8     6
-1.1813000000e-06     1     5     8     7
-4.4934948700e-02     1     5     8     8
-1.8648590000e-04     1     5     8     9
 6.7508000000e-06     1     5     8    10
-2.0333390000e-04     1     5     8    11
 1.0644718000e-02     1     5     8    12
 1.4519445000e-03     1     5     8    13
 6.2844498800e-02     1     5     9     1
-1.6960618300e-02     1     5     9     2
 1.4870000000e-06     1     5     9     3
 2.7745000000e-06     1     5     9     4
-7.8818592000e-03     1     5     9     6
-1.5056200000e-05     1     5     9     7
-9.3590500000e-05     1     5     9     8
-4.6374326200e-02     1     5     9     9
-1.9052000000e-06     1     5     9    10
 1.0714630000e-04     1     5     9    11
 9.5300340000e-04     1     5     9    12
-1.3422090000e-03     1     5     9    13
 1.6475400000e-05     1     5    10     1
-2.1853000000e-06     1     5    10     2
 2.1071000000e-06     1     5    10     3
 3.1500000000e-07     1     5    10     4
-6.6580000000e-07     1     5    10     6
-1.8633620000e-04     1     5    10     7
 2.4431000000e-06     1     5    10     8
 1.2329000000e-06     1     5    10     9
-4.1530955900e-02     1     5    10    10
 2.0000000000e-10     1     5    10    11
 1.0625100000e-05     1     5    10    12
-1.6060120000e-04     1     5    10    13
-9.9975740000e-04     1     5    11     1
 9.1515200000e-05     1     5    11     2
-2.3700000000e-06     1     5    11     3
-1.1255000000e-06     1     5    11     4
 6.1808900000e-05     1     5    11     6
 1.7853500000e-05     1     5    11     7
 1.9247710000e-04     1     5    11     8
-1.0484600000e-04     1     5    11     9
 9.8300000000e-08     1     5    11    10
-4.1530149900e-02     1     5    11    11
-1.7430890000e-04     1     5    11    12
-2.0379100000e-05     1     5    11    13
-8.1255053000e-03     1     5    12     1
 7.6134740000e-04     1     5    12     2
 4.5170010000e-04     1     5    12     3
 7.6004260000e-04     1     5    12     4
 4.4387840000e-04     1     5    12     6
-3.0736630000e-04     1     5    12     7
-2.8576001000e-03     1     5    12     8
-7.2797570000e-04     1     5    12     9
-5.2452000000e-06     1     5    12    10
 1.0687670000e-04     1     5    12    11
-4.2144776200e-02     1     5    12    12
-1.6392600000e-05     1     5    12    13
 1.0545255600e-02     1     5    13     1
-9.6517010000e-04     1     5    13     2
-7.3775020000e-04     1     5    13     3
 4.6473580000e-04     1     5    13     4