&FCI NORB= 13,NELEC=  2,MS2=0,
 ORBSYM=1,1,1,1,1,1,1,1,1,1,1,1,1
 ISYM=1,
&END
 1.0034569830e-01     1     1     2     2
 3.1103850600e-02     1     1     2     3
 4.2709350000e-04     1     1     2     4
-1.1375900000e-05     1     1     2     5
 2.9061000000e-06     1     1     2     6
 6.8754514000e-03     1     1     2     7
-4.8133506000e-03     1     1     2     8
-2.1627000000e-06     1     1     2     9
-2.3435680000e-04     1     1     2    10
-8.3154150000e-04     1     1     2    11
 6.2445880000e-04     1     1     2    12
 2.4587270000e-04     1     1     2    13
 3.1103850600e-02     1     1     3     2
 2.5150768700e-01     1     1     3     3
-1.8529003000e-03     1     1     3     4
 5.7464100000e-05     1     1     3     5
-1.4512600000e-05     1     1     3     6
-6.8931791400e-02     1     1     3     7
-4.1818511800e-02     1     1     3     8
-1.5154270000e-04     1     1     3     9
-2.0500283000e-03     1     1     3    10
-3.1873590000e-04     1     1     3    11
 2.2617780000e-04     1     1     3    12
 7.2985600000e-05     1     1     3    13
 4.2709350000e-04     1     1     4     2
-1.8529003000e-03     1     1     4     3
 2.7666591190e-01     1     1     4     4
 9.7003900000e-05     1     1     4     5
-2.4412600000e-05     1     1     4     6
-3.3840915000e-02     1     1     4     7
 5.9016965000e-02     1     1     4     8
 2.2232733000e-03     1     1     4     9
 2.6005045000e-03     1     1     4    10
-1.2704994500e-02     1     1     4    11
 9.3564659000e-03     1     1     4    12
 3.3331598000e-03     1     1     4    13
-1.1375900000e-05     1     1     5     2
 5.7464100000e-05     1     1     5     3
 9.7003900000e-05     1     1     5     4
 2.8109484580e-01     1     1     5     5
 7.4740000000e-07     1     1     5     6
 1.0017671000e-03     1     1     5     7
-2.3175258000e-03     1     1     5     8
 6.6189748300e-02     1     1     5     9
 6.3738685000e-03     1     1     5    10
-6.0835310000e-04     1     1     5    11
-5.5850816000e-03     1     1     5    12
 1.1967688400e-02     1     1     5    13
 2.9061000000e-06     1     1     6     2
-1.4512600000e-05     1     1     6     3
-2.4412600000e-05     1     1     6     4
 7.4740000000e-07     1     1     6     5
 2.8110125850e-01     1     1     6     6
-2.5186540000e-04     1     1     6     7
-2.7793223000e-03     1     1     6     8
-6.4659481000e-03     1     1     6     9
 6.6167029800e-02     1     1     6    10
-8.1481479000e-03     1     1     6    11
-9.2911665000e-03     1     1     6    12
-4.8707904000e-03     1     1     6    13
 6.8754514000e-03     1     1     7     2
-6.8931791400e-02     1     1     7     3
-3.3840915000e-02     1     1     7     4
 1.0017671000e-03     1     1     7     5
-2.5186540000e-04     1     1     7     6
 2.9532643820e-01     1     1     7     7
 7.6257613000e-03     1     1     7     8
-1.0973900000e-05     1     1     7     9
 3.7105530000e-04     1     1     7    10
 4.6144505000e-03     1     1     7    11
-3.4528874000e-03     1     1     7    12
-1.3934744000e-03     1     1     7    13
-4.8133506000e-03     1     1     8     2
-4.1818511800e-02     1     1     8     3
 5.9016965000e-02     1     1     8     4
-2.3175258000e-03     1     1     8     5
-2.7793223000e-03     1     1     8     6
 7.6257613000e-03     1     1     8     7
 3.2199987080e-01     1     1     8     8
 4.3273500000e-05     1     1     8     9
-3.3153400000e-05     1     1     8    10
-5.3028745000e-03     1     1     8    11
 4.3749816000e-03     1     1     8    12
 1.4984037000e-03     1     1     8    13
-2.1627000000e-06     1     1     9     2
-1.5154270000e-04     1     1     9     3
 2.2232733000e-03     1     1     9     4
 6.6189748300e-02     1     1     9     5
-6.4659481000e-03     1     1     9     6
-1.0973900000e-05     1     1     9     7
 4.3273500000e-05     1     1     9     8
 3.2397167970e-01     1     1     9     9
 2.1943000000e-06     1     1     9    10
-1.2953430000e-04     1     1     9    11
-2.1883975000e-03     1     1     9    12
 6.3493364000e-03     1     1     9    13
-2.3435680000e-04     1     1    10     2
-2.0500283000e-03     1     1    10     3
 2.6005045000e-03     1     1    10     4
 6.3738685000e-03     1     1    10     5
 6.6167029800e-02     1     1    10     6
 3.7105530000e-04     1     1    10     7
-3.3153400000e-05     1     1    10     8
 2.1943000000e-06     1     1    10     9
 3.2394907530e-01     1     1    10    10
-4.3645615000e-03     1     1    10    11
-4.7839656000e-03     1     1    10    12
-1.8075491000e-03     1     1    10    13
-8.3154150000e-04     1     1    11     2
-3.1873590000e-04     1     1    11     3
-1.2704994500e-02     1     1    11     4
-6.0835310000e-04     1     1    11     5
-8.1481479000e-03     1     1    11     6
 4.6144505000e-03     1     1    11     7
-5.3028745000e-03     1     1    11     8
-1.2953430000e-04     1     1    11     9
-4.3645615000e-03     1     1    11    10
 3.1635874840e-01     1     1    11    11
-2.8215560000e-04     1     1    11    12
-7.0435600000e-05     1     1    11    13
 6.2445880000e-04     1     1    12     2
 2.2617780000e-04     1     1    12     3
 9.3564659000e-03     1     1    12     4
-5.5850816000e-03     1     1    12     5
-9.2911665000e-03     1     1    12     6
-3.4528874000e-03     1     1    12     7
 4.3749816000e-03     1     1    12     8
-2.1883975000e-03     1     1    12     9
-4.7839656000e-03     1     1    12    10
-2.8215560000e-04     1     1    12    11
 3.1614998050e-01     1     1    12    12
 4.4853100000e-05     1     1    12    13
 2.4587270000e-04     1     1    13     2
 7.2985600000e-05     1     1    13     3
 3.3331598000e-03     1     1    13     4
 1.1967688400e-02     1     1    13     5
-4.8707904000e-03     1     1    13     6
-1.3934744000e-03     1     1    13     7
 1.4984037000e-03     1     1    13     8
 6.3493364000e-03     1     1    13     9
-1.8075491000e-03     1     1    13    10
-7.0435600000e-05     1     1    13    11
 4.4853100000e-05     1     1    13    12
 3.1588178340e-01     1     1    13    13
-1.0034569830e-01     1     2     2     1
-1.7173964500e-02     1     2     2     3
-1.2441866700e-02     1     2     2     4
 3.9084530000e-04     1     2     2     5
-9.7754900000e-05     1     2     2     6
-4.3394922000e-03     1     2     2     7
 5.6720029000e-03     1     2     2     8
 3.1126000000e-06     1     2     2     9
 2.7802800000e-04     1     2     2    10
 1.2333637000e-03     1     2     2    11
-9.1576290000e-04     1     2     2    12
-3.0509180000e-04     1     2     2    13
-3.1103850600e-02     1     2     3     1
-7.7522305800e-02     1     2     3     3
 3.8799051000e-03     1     2     3     4
-1.1936610000e-04     1     2     3     5
 2.9955700000e-05     1     2     3     6
 4.6201060400e-02     1     2     3     7
 1.9150542000e-02     1     2     3     8
 8.4571000000e-05     1     2     3     9
 9.3727690000e-04     1     2     3    10
 3.4472280000e-04     1     2     3    11
-2.5309360000e-04     1     2     3    12
-8.9591100000e-05     1     2     3    13
-4.2709350000e-04     1     2     4     1
 5.8011486000e-03     1     2     4     3
-1.0076682760e-01     1     2     4     4
-5.6856300000e-05     1     2     4     5
 1.4320200000e-05     1     2     4     6
 2.1153117600e-02     1     2     4     7
-3.7553572600e-02     1     2     4     8
-1.3842367000e-03     1     2     4     9
-1.6564345000e-03     1     2     4    10
 2.4224296000e-03     1     2     4    11
-1.7920620000e-03     1     2     4    12
-6.2566700000e-04     1     2     4    13
 1.1375900000e-05     1     2     5     1
-1.8041490000e-04     1     2     5     3
-5.7365100000e-05     1     2     5     4
-1.0328910370e-01     1     2     5     5
-4.4320000000e-07     1     2     5     6
-6.2551940000e-04     1     2     5     7
 1.4722992000e-03     1     2     5     8
-4.1273969000e-02     1     2     5     9
-3.9731181000e-03     1     2     5    10
 8.0993000000e-05     1     2     5    11
 8.8035280000e-04     1     2     5    12
-1.8561983000e-03     1     2     5    13
-2.9061000000e-06     1     2     6     1
 4.5208500000e-05     1     2     6     3
 1.4425200000e-05     1     2     6     4
-4.4600000000e-07     1     2     6     5
-1.0329267310e-01     1     2     6     6
 1.5723750000e-04     1     2     6     7
 1.7279251000e-03     1     2     6     8
 4.0319554000e-03     1     2     6     9
-4.1261021600e-02     1     2     6    10
 1.2644647000e-03     1     2     6    11
 1.4496726000e-03     1     2     6    12
 7.6028800000e-04     1     2     6    13
-6.8754514000e-03     1     2     7     1
 4.0971662700e-02     1     2     7     3
 1.6414484100e-02     1     2     7     4
-4.8207430000e-04     1     2     7     5
 1.2127570000e-04     1     2     7     6
-1.0185215770e-01     1     2     7     7
-5.7979605000e-03     1     2     7     8
 1.1377500000e-05     1     2     7     9
-2.7984690000e-04     1     2     7    10
-2.8216475000e-03     1     2     7    11
 2.1155127000e-03     1     2     7    12
 8.8025100000e-04     1     2     7    13
 4.8133506000e-03     1     2     8     1
 1.7029596300e-02     1     2     8     3
-3.1617481100e-02     1     2     8     4
 1.2408215000e-03     1     2     8     5
 1.4650299000e-03     1     2     8     6
-6.8972207000e-03     1     2     8     7
-1.2643740850e-01     1     2     8     8
-3.8312800000e-05     1     2     8     9
-9.8289100000e-05     1     2     8    10
 4.3437612000e-03     1     2     8    11
-3.5932743000e-03     1     2     8    12
-1.1972814000e-03     1     2     8    13
 2.1627000000e-06     1     2     9     1
 7.5807700000e-05     1     2     9     3
-1.1736930000e-03     1     2     9     4
-3.4973219500e-02     1     2     9     5
 3.4163025000e-03     1     2     9     6
 9.6294000000e-06     1     2     9     7
-3.7470200000e-05     1     2     9     8
-1.2530071970e-01     1     2     9     9
-1.9675000000e-06     1     2     9    10
 1.0465900000e-04     1     2     9    11
 1.8960056000e-03     1     2     9    12
-5.4842616000e-03     1     2     9    13
 2.3435680000e-04     1     2    10     1
 8.3333010000e-04     1     2    10     3
-1.3943485000e-03     1     2    10     4
-3.3667400000e-03     1     2    10     5
-3.4961831100e-02     1     2    10     6
-3.3428280000e-04     1     2    10     7
-9.8348100000e-05     1     2    10     8
-1.9865000000e-06     1     2    10     9
-1.2529107570e-01     1     2    10    10
 3.7645892000e-03     1     2    10    11
 4.1367688000e-03     1     2    10    12
 1.5648719000e-03     1     2    10    13
 8.3154150000e-04     1     2    11     1
 5.2756300000e-05     1     2    11     3
 2.3053950000e-03     1     2    11     4
 8.6311800000e-05     1     2    11     5
 1.2717410000e-03     1     2    11     6
-3.2006887000e-03     1     2    11     7
 4.7714477000e-03     1     2    11     8
 1.1392810000e-04     1     2    11     9
 4.1081585000e-03     1     2    11    10
-1.2057915840e-01     1     2    11    11
 1.3128480000e-04     1     2    11    12
 3.2622400000e-05     1     2    11    13
-6.2445880000e-04     1     2    12     1
-3.7566400000e-05     1     2    12     3
-1.7056436000e-03     1     2    12     4
 8.8163330000e-04     1     2    12     5
 1.4576798000e-03     1     2    12     6
 2.3942560000e-03     1     2    12     7
-3.9408181000e-03     1     2    12     8
 2.0682491000e-03     1     2    12     9
 4.5098870000e-03     1     2    12    10
 1.3156280000e-04     1     2    12    11
-1.2048155610e-01     1     2    12    12
-1.7522500000e-05     1     2    12    13
-2.4587270000e-04     1     2    13     1
-2.4245700000e-05     1     2    13     3
-6.1027290000e-04     1     2    13     4
-1.8695426000e-03     1     2    13     5
 7.6465960000e-04     1     2    13     6
 9.5563770000e-04     1     2    13     7
-1.2972308000e-03     1     2    13     8
-5.9785180000e-03     1     2    13     9
 1.7062132000e-03     1     2    13    10
 3.4900600000e-05     1     2    13    11
-1.9001000000e-05     1     2    13    12
-1.2034477550e-01     1     2    13    13
-3.1103850600e-02     1     3     2     1
 1.7173964500e-02     1     3     2     2
-1.9212435000e-03     1     3     2     4
 6.1048800000e-05     1     3     2     5
-1.5252800000e-05     1     3     2     6
 5.2293977000e-03     1     3     2     7
 2.1209457000e-03     1     3     2     8
 8.7633000000e-06     1     3     2     9
 1.0394680000e-04     1     3     2    10
 2.9196650000e-04     1     3     2    11
-2.1552720000e-04     1     3     2    12
-6.5345400000e-05     1     3     2    13
-2.5150768700e-01     1     3     3     1
 7.7522305800e-02     1     3     3     2
-1.0223782200e-02     1     3     3     4
 3.2282900000e-04     1     3     3     5
-8.0587300000e-05     1     3     3     6
 3.2315847500e-02     1     3     3     7
 2.2892007300e-02     1     3     3     8
 7.6190000000e-05     1     3     3     9
 1.1217794000e-03     1     3     3    10
 1.3386764000e-03     1     3     3    11
-9.9612800000e-04     1     3     3    12
-3.8161570000e-04     1     3     3    13
 1.8529003000e-03     1     3     4     1
-5.8011486000e-03     1     3     4     2
-6.2834795100e-02     1     3     4     4
-2.1612200000e-05     1     3     4     5
 5.4756000000e-06     1     3     4     6
 1.7787872200e-02     1     3     4     7
-3.8787687700e-02     1     3     4     8
-1.4666216000e-03     1     3     4     9
-1.7113682000e-03     1     3     4    10
 3.9711526000e-03     1     3     4    11
-2.9372049000e-03     1     3     4    12
-1.0792407000e-03     1     3     4    13
-5.7464100000e-05     1     3     5     1
 1.8041490000e-04     1     3     5     2
-2.1698600000e-05     1     3     5     4
-6.4039028300e-02     1     3     5     5
-1.6970000000e-07     1     3     5     6
-5.1817160000e-04     1     3     5     7
 1.5208797000e-03     1     3     5     8
-4.3465605000e-02     1     3     5     9
-4.1852623000e-03     1     3     5    10
 1.6141140000e-04     1     3     5    11
 1.5853993000e-03     1     3     5    12
-3.3773084000e-03     1     3     5    13
 1.4512600000e-05     1     3     6     1
-4.5208500000e-05     1     3     6     2
 5.4638000000e-06     1     3     6     4
-1.6910000000e-07     1     3     6     5
-6.4040941100e-02     1     3     6     6
 1.3036520000e-04     1     3     6     7
 1.8219839000e-03     1     3     6     8
 4.2460431000e-03     1     3     6     9
-4.3450139500e-02     1     3     6    10
 2.2971583000e-03     1     3     6    11
 2.6278950000e-03     1     3     6    12
 1.3784178000e-03     1     3     6    13
 6.8931791400e-02     1     3     7     1
-4.0971662700e-02     1     3     7     2
 7.9869161000e-03     1     3     7     4
-2.3738160000e-04     1     3     7     5
 5.9649600000e-05     1     3     7     6
-5.7531643400e-02     1     3     7     7
-1.9904784000e-03     1     3     7     8
 8.3920000000e-06     1     3     7     9
-9.5174000000e-05     1     3     7    10
-2.3845158000e-03     1     3     7    11
 1.7775472000e-03     1     3     7    12
 6.7228430000e-04     1     3     7    13
 4.1818511800e-02     1     3     8     1
-1.7029596300e-02     1     3     8     2
-1.0949421100e-02     1     3     8     4
 4.3212390000e-04     1     3     8     5
 5.3494900000e-04     1     3     8     6
-3.2532376000e-03     1     3     8     7
-7.2299674300e-02     1     3     8     8
-2.5426800000e-05     1     3     8     9
-8.3740300000e-05     1     3     8    10
 3.1572442000e-03     1     3     8    11
-2.5997064000e-03     1     3     8    12
-8.4477650000e-04     1     3     8    13
 1.5154270000e-04     1     3     9     1
-7.5807700000e-05     1     3     9     2
-4.2371600000e-04     1     3     9     4
-1.2659065300e-02     1     3     9     5
 1.2360197000e-03     1     3     9     6
 3.5705000000e-06     1     3     9     7
-2.3998600000e-05     1     3     9     8
-7.1376323900e-02     1     3     9     9
-1.5187000000e-06     1     3     9    10
 7.3864100000e-05     1     3     9    11
 1.3496208000e-03     1     3     9    12
-3.8951815000e-03     1     3     9    13
 2.0500283000e-03     1     3    10     1
-8.3333010000e-04     1     3    10     2
-4.7905340000e-04     1     3    10     4
-1.2189765000e-03     1     3    10     5
-1.2654613800e-02     1     3    10     6
-1.5813000000e-04     1     3    10     7
-8.4015700000e-05     1     3    10     8
-1.1122000000e-06     1     3    10     9
-7.1370803800e-02     1     3    10    10
 2.6818621000e-03     1     3    10    11
 2.9412213000e-03     1     3    10    12
 1.1127427000e-03     1     3    10    13
 3.1873590000e-04     1     3    11     1
-5.2756300000e-05     1     3    11     2
 4.1265740000e-04     1     3    11     4
 1.2674200000e-05     1     3    11     5
 2.0390480000e-04     1     3    11     6
-2.0412807000e-03     1     3    11     7
 3.7969849000e-03     1     3    11     8
 8.6211500000e-05     1     3    11     9
 3.1388006000e-03     1     3    11    10
-6.0004924800e-02     1     3    11    11
 1.6371040000e-04     1     3    11    12
 4.3931300000e-05     1     3    11    13
-2.2617780000e-04     1     3    12     1
 3.7566400000e-05     1     3    12     2
-3.0452200000e-04     1     3    12     4
 1.4315820000e-04     1     3    12     5
 2.3633820000e-04     1     3    12     6
 1.5217956000e-03     1     3    12     7
-3.1156699000e-03     1     3    12     8
 1.5764445000e-03     1     3    12     9
 3.4294493000e-03     1     3    12    10
 1.6350360000e-04     1     3    12    11
-5.9895493200e-02     1     3    12    12
-3.3438900000e-05     1     3    12    13
-7.2985600000e-05     1     3    13     1
 2.4245700000e-05     1     3    13     2
-9.5192100000e-05     1     3    13     4
-3.0045780000e-04     1     3    13     5
 1.2357200000e-04     1     3    13     6
 5.7255150000e-04     1     3    13     7
-1.0018749000e-03     1     3    13     8
-4.5482812000e-03     1     3    13     9
 1.2979665000e-03     1     3    13    10
 4.1993600000e-05     1     3    13    11
-3.2071200000e-05     1     3    13    12
-5.9755804600e-02     1     3    13    13
-4.2709350000e-04     1     4     2     1
 1.2441866700e-02     1     4     2     2
 1.9212435000e-03     1     4     2     3
 5.0880000000e-07     1     4     2     5
-1.0500000000e-07     1     4     2     6
 4.7386335000e-03     1     4     2     7
-5.9360915000e-03     1     4     2     8
-2.1054370000e-04     1     4     2     9
-2.6208600000e-04     1     4     2    10
 1.1703460000e-04     1     4     2    11
-8.6418400000e-05     1     4     2    12
-1.5394100000e-05     1     4     2    13
 1.8529003000e-03     1     4     3     1
-3.8799051000e-03     1     4     3     2
 1.0223782200e-02     1     4     3     3
 8.6400000000e-08     1     4     3     5
 1.1800000000e-08     1     4     3     6
 9.8009561000e-03     1     4     3     7
-2.7838266600e-02     1     4     3     8
-1.0429056000e-03     1     4     3     9
-1.2323148000e-03     1     4     3    10
 3.5584952000e-03     1     4     3    11
-2.6326829000e-03     1     4     3    12
-9.8404860000e-04     1     4     3    13
-2.7666591190e-01     1     4     4     1
 1.0076682760e-01     1     4     4     2
 6.2834795100e-02     1     4     4     3
 4.2356970000e-04     1     4     4     5
-1.0583410000e-04     1     4     4     6
-2.0318802600e-02     1     4     4     7
-4.6509043000e-03     1     4     4     8
-4.2886000000e-05     1     4     4     9
-2.1666290000e-04     1     4     4    10
-2.8498077300e-02     1     4     4    11
 2.0767334900e-02     1     4     4    12
 8.5405413000e-03     1     4     4    13
-9.7003900000e-05     1     4     5     1
 5.7365100000e-05     1     4     5     2
 2.1698600000e-05     1     4     5     3
 1.3527065500e-02     1     4     5     5
 1.3000000000e-09     1     4     5     6
-3.6076300000e-05     1     4     5     7
 2.2982100000e-05     1     4     5     8
 1.2270640000e-04     1     4     5     9
 1.3684900000e-05     1     4     5    10
-1.0298349000e-03     1     4     5    11
-1.3897585300e-02     1     4     5    12
 2.9119432300e-02     1     4     5    13
 2.4412600000e-05     1     4     6     1
-1.4425200000e-05     1     4     6     2
-5.4638000000e-06     1     4     6     3
-1.3800000000e-08     1     4     6     5
 1.3527245300e-02     1     4     6     6
 8.8722000000e-06     1     4     6     7
-7.4453000000e-06     1     4     6     8
-1.2221900000e-05     1     4     6     9
 1.1835470000e-04     1     4     6    10
-2.0102022100e-02     1     4     6    11
-2.2594057900e-02     1     4     6    12
-1.1859302600e-02     1     4     6    13
 3.3840915000e-02     1     4     7     1
-1.6414484100e-02     1     4     7     2
-7.9869161000e-03     1     4     7     3
-2.9420000000e-07     1     4     7     5
 6.2500000000e-08     1     4     7     6
 2.2139127500e-02     1     4     7     7
 1.0484362400e-02     1     4     7     8
 2.5884690000e-04     1     4     7     9
 4.9474390000e-04     1     4     7    10
 3.8126533000e-03     1     4     7    11
-2.7940077000e-03     1     4     7    12
-1.0076763000e-03     1     4     7    13
-5.9016965000e-02     1     4     8     1
 3.1617481100e-02     1     4     8     2
 1.0949421100e-02     1     4     8     3
-4.1581000000e-06     1     4     8     5
-3.2232300000e-05     1     4     8     6
-1.0666321700e-02     1     4     8     7
 8.3112903000e-03     1     4     8     8
-6.6158000000e-06     1     4     8     9
-3.5813690000e-04     1     4     8    10
-5.8370331000e-03     1     4     8    11
 4.6369981000e-03     1     4     8    12
 1.7093799000e-03     1     4     8    13
-2.2232733000e-03     1     4     9     1
 1.1736930000e-03     1     4     9     2
 4.2371600000e-04     1     4     9     3
 6.5185050000e-04     1     4     9     5
-6.3828400000e-05     1     4     9     6
-4.2022080000e-04     1     4     9     7
-3.0555240000e-04     1     4     9     8
 1.5546771800e-02     1     4     9     9
-1.4883200000e-05     1     4     9    10
-4.2134700000e-05     1     4     9    11
-2.0266577000e-03     1     4     9    12
 5.7066045000e-03     1     4     9    13
-2.6005045000e-03     1     4    10     1
 1.3943485000e-03     1     4    10     2
 4.7905340000e-04     1     4    10     3
 6.3609300000e-05     1     4    10     5
 6.5060700000e-04     1     4    10     6
-4.5736870000e-04     1     4    10     7
-3.1737550000e-04     1     4    10     8
-5.5360000000e-07     1     4    10     9
 1.5533549900e-02     1     4    10    10
-4.0439176000e-03     1     4    10    11
-4.2688088000e-03     1     4    10    12
-1.6088207000e-03     1     4    10    13
 1.2704994500e-02     1     4    11     1
-2.3053950000e-03     1     4    11     2
-4.1265740000e-04     1     4    11     3
-5.0645800000e-05     1     4    11     5
-3.8665600000e-04     1     4    11     6
 3.8714190000e-04     1     4    11     7
 4.3407464000e-03     1     4    11     8
-1.5372500000e-05     1     4    11     9
 3.8434223000e-03     1     4    11    10
 1.2170902500e-02     1     4    11    11
-3.4156600000e-05     1     4    11    12
-6.9773400000e-05     1     4    11    13
-9.3564659000e-03     1     4    12     1
 1.7056436000e-03     1     4    12     2
 3.0452200000e-04     1     4    12     3
-2.5262180000e-04     1     4    12     5
-4.5371820000e-04     1     4    12     6
-2.8730280000e-04     1     4    12     7
-3.5600477000e-03     1     4    12     8
 1.9993417000e-03     1     4    12     9
 4.1827026000e-03     1     4    12    10
-4.9023200000e-05     1     4    12    11
 1.2133946600e-02     1     4    12    12
 4.1090800000e-05     1     4    12    13
-3.3331598000e-03     1     4    13     1
 6.1027290000e-04     1     4    13     2
 9.5192100000e-05     1     4    13     3
 5.9057370000e-04     1     4    13     5
-2.3650270000e-04     1     4    13     6
-1.0902540000e-04     1     4    13     7
-1.2227672000e-03     1     4    13     8
-5.5266152000e-03     1     4    13     9
 1.5781455000e-03     1     4    13    10
 2.8904900000e-05     1     4    13    11
-3.0979700000e-05     1     4    13    12
 1.2088872400e-02     1     4    13    13
 1.1375900000e-05     1     5     2     1
-3.9084530000e-04     1     5     2     2
-6.1048800000e-05     1     5     2     3
-5.0880000000e-07     1     5     2     4
 2.8000000000e-09     1     5     2     6
-1.4344510000e-04     1     5     2     7
 2.3147770000e-04     1     5     2     8
-6.3007495000e-03     1     5     2     9
-6.0637810000e-04     1     5     2    10
-5.3188000000e-06     1     5     2    11
-1.2805000000e-06     1     5     2    12
 1.3344300000e-05     1     5     2    13
-5.7464100000e-05     1     5     3     1
 1.1936610000e-04     1     5     3     2
-3.2282900000e-04     1     5     3     3
-8.6400000000e-08     1     5     3     4
-6.0000000000e-10     1     5     3     6
-2.8079000000e-04     1     5     3     7
 1.0887558000e-03     1     5     3     8
-3.0806539700e-02     1     5     3     9
-2.9662858000e-03     1     5     3    10
 1.4873720000e-04     1     5     3    11
 1.4422411000e-03     1     5     3    12
-3.0768506000e-03     1     5     3    13
-9.7003900000e-05     1     5     4     1
 5.6856300000e-05     1     5     4     2
 2.1612200000e-05     1     5     4     3
-4.2356970000e-04     1     5     4     4
 1.5100000000e-08     1     5     4     6
-3.5782100000e-05     1     5     4     7
 2.7140200000e-05     1     5     4     8
-5.2914410000e-04     1     5     4     9
-4.9924400000e-05     1     5     4    10
-9.7918910000e-04     1     5     4    11
-1.3644963500e-02     1     5     4    12
 2.8528858600e-02     1     5     4    13
-2.8109484580e-01     1     5     5     1
 1.0328910370e-01     1     5     5     2
 6.4039028300e-02     1     5     5     3
-1.3527065500e-02     1     5     5     4
-1.0647560000e-04     1     5     5     6
-2.1800280900e-02     1     5     5     7
-4.1716273000e-03     1     5     5     8
-1.7206700000e-05     1     5     5     9
-2.0821270000e-04     1     5     5    10
 1.7650035800e-02     1     5     5    11
-7.5393584000e-03     1     5     5    12
-8.4887645000e-03     1     5     5    13
-7.4740000000e-07     1     5     6     1
 4.4600000000e-07     1     5     6     2
 1.6910000000e-07     1     5     6     3
 1.3800000000e-08     1     5     6     4
-4.2616690000e-04     1     5     6     6
-4.7420000000e-07     1     5     6     7
 4.0260000000e-07     1     5     6     8
-3.8861000000e-06     1     5     6     9
-3.2559000000e-06     1     5     6    10
 2.9110010000e-04     1     5     6    11
 2.7655985000e-03     1     5     6    12
 2.5122406000e-03     1     5     6    13
-1.0017671000e-03     1     5     7     1
 4.8207430000e-04     1     5     7     2
 2.3738160000e-04     1     5     7     3
 2.9420000000e-07     1     5     7     4
 5.0000000000e-09     1     5     7     6
-6.8614410000e-04     1     5     7     7
-3.6275670000e-04     1     5     7     8
 6.9977322000e-03     1     5     7     9
 6.6777290000e-04     1     5     7    10
 1.8084850000e-04     1     5     7    11
 1.6257746000e-03     1     5     7    12
-3.4876244000e-03     1     5     7    13
 2.3175258000e-03     1     5     8     1
-1.2408215000e-03     1     5     8     2
-4.3212390000e-04     1     5     8     3
 4.1581000000e-06     1     5     8     4
 1.0307000000e-06     1     5     8     6
 4.2621410000e-04     1     5     8     7
-2.1453350000e-04     1     5     8     8
 9.5886400000e-04     1     5     8     9
 1.0755890000e-04     1     5     8    10
-3.1206190000e-04     1     5     8    11
-2.5252904000e-03     1     5     8    12
 5.3772643000e-03     1     5     8    13
-6.6189748300e-02     1     5     9     1
 3.4973219500e-02     1     5     9     2
 1.2659065300e-02     1     5     9     3
-6.5185050000e-04     1     5     9     4
-3.0861000000e-06     1     5     9     6
-1.2594504900e-02     1     5     9     7
-8.9154623000e-03     1     5     9     8
-5.0846620000e-04     1     5     9     9
-4.3892850000e-04     1     5     9    10
 3.3281900000e-03     1     5     9    11
-1.4506549000e-03     1     5     9    12
-1.5049963000e-03     1     5     9    13
-6.3738685000e-03     1     5    10     1
 3.3667400000e-03     1     5    10     2
 1.2189765000e-03     1     5    10     3
-6.3609300000e-05     1     5    10     4
-2.0871200000e-05     1     5    10     6
-1.2137503000e-03     1     5    10     7
-8.6038470000e-04     1     5    10     8
 4.3431800000e-05     1     5    10     9
-5.2704630000e-04     1     5    10    10
 3.6847170000e-04     1     5    10    11
 2.9499500000e-04     1     5    10    12
 5.5792000000e-04     1     5    10    13
 6.0835310000e-04     1     5    11     1
-8.6311800000e-05     1     5    11     2
-1.2674200000e-05     1     5    11     3
 5.0645800000e-05     1     5    11     4
 1.3404400000e-05     1     5    11     6
-1.0553000000e-06     1     5    11     7
 2.5520780000e-04     1     5    11     8
-2.5782162000e-03     1     5    11     9
-2.9150150000e-04     1     5    11    10
-4.2198580000e-04     1     5    11    11
 5.9482530000e-04     1     5    11    12
-1.2166355000e-03     1     5    11    13
 5.5850816000e-03     1     5    12     1
-8.8163330000e-04     1     5    12     2
-1.4315820000e-04     1     5    12     3
 2.5262180000e-04     1     5    12     4
 1.7146400000e-05     1     5    12     6
-4.3488600000e-05     1     5    12     7
 2.3087268000e-03     1     5    12     8
 1.2100404000e-03     1     5    12     9
-2.7886410000e-04     1     5    12    10
-8.0917980000e-04     1     5    12    11
-1.0926900000e-04     1     5    12    12
 9.6714370000e-04     1     5    12    13
-1.1967688400e-02     1     5    13     1
 1.8695426000e-03     1     5    13     2
 3.0045780000e-04     1     5    13     3
-5.9057370000e-04     1     5    13     4