&FCI NORB= 13,NELEC=  2,MS2=0,
 ORBSYM=1,1,1,1,1,1,1,1,1,1,1,1,1
 ISYM=1,
&END
 2.3137557680e-01     1     1     2     2
-1.4853611000e-03     1     1     2     3
-7.0057000000e-06     1     1     2     4
-2.6178000000e-06     1     1     2     5
 6.6223133700e-02     1     1     2     6
-5.7336500000e-04     1     1     2     7
-2.9495620000e-04     1     1     2     8
-2.8195135600e-02     1     1     2     9
-2.7122755000e-03     1     1     2    10
-6.4371100000e-05     1     1     2    11
 6.4766700000e-05     1     1     2    12
 6.6510600000e-05     1     1     2    13
-1.4853611000e-03     1     1     3     2
 2.9648831550e-01     1     1     3     3
-3.8215000000e-06     1     1     3     4
 1.7773000000e-06     1     1     3     5
-3.7897604000e-03     1     1     3     6
-1.3143561000e-03     1     1     3     7
-9.2745550000e-04     1     1     3     8
-6.1978137800e-02     1     1     3     9
-4.5561924800e-02     1     1     3    10
-7.3023710000e-04     1     1     3    11
 1.1145955000e-03     1     1     3    12
 1.0754364000e-03     1     1     3    13
-7.0057000000e-06     1     1     4     2
-3.8215000000e-06     1     1     4     3
 2.9904395120e-01     1     1     4     4
-1.6800000000e-08     1     1     4     5
-1.2499700000e-05     1     1     4     6
-1.4297797700e-02     1     1     4     7
 5.9713374200e-02     1     1     4     8
-6.1111450000e-04     1     1     4     9
-1.0757217000e-03     1     1     4    10
-1.4857910000e-04     1     1     4    11
-4.0798107400e-02     1     1     4    12
-5.0630841000e-03     1     1     4    13
-2.6178000000e-06     1     1     5     2
 1.7773000000e-06     1     1     5     3
-1.6800000000e-08     1     1     5     4
 2.9903903480e-01     1     1     5     5
 1.7226600000e-05     1     1     5     6
-5.9714122800e-02     1     1     5     7
-1.4278416100e-02     1     1     5     8
 1.5439172000e-03     1     1     5     9
 5.0137600000e-04     1     1     5    10
-4.1034782300e-02     1     1     5    11
 3.0749900000e-04     1     1     5    12
-2.9400975000e-03     1     1     5    13
 6.6223133700e-02     1     1     6     2
-3.7897604000e-03     1     1     6     3
-1.2499700000e-05     1     1     6     4
 1.7226600000e-05     1     1     6     5
 3.2646372440e-01     1     1     6     6
 1.8751330000e-04     1     1     6     7
 8.5810600000e-05     1     1     6     8
 8.4188200000e-03     1     1     6     9
 1.0491687400e-02     1     1     6    10
 3.7729090000e-04     1     1     6    11
-3.3293390000e-04     1     1     6    12
-2.9795240000e-04     1     1     6    13
-5.7336500000e-04     1     1     7     2
-1.3143561000e-03     1     1     7     3
-1.4297797700e-02     1     1     7     4
-5.9714122800e-02     1     1     7     5
 1.8751330000e-04     1     1     7     6
 3.2205419610e-01     1     1     7     7
-1.1420000000e-07     1     1     7     8
 1.0491600000e-05     1     1     7     9
 2.6412630000e-04     1     1     7    10
 1.5021189900e-02     1     1     7    11
 3.4438796000e-03     1     1     7    12
 1.4107414000e-03     1     1     7    13
-2.9495620000e-04     1     1     8     2
-9.2745550000e-04     1     1     8     3
 5.9713374200e-02     1     1     8     4
-1.4278416100e-02     1     1     8     5
 8.5810600000e-05     1     1     8     6
-1.1420000000e-07     1     1     8     7
 3.2203961320e-01     1     1     8     8
 1.2431200000e-05     1     1     8     9
-1.7773330000e-04     1     1     8    10
 3.5426379000e-03     1     1     8    11
-1.4947860200e-02     1     1     8    12
-1.4963920000e-03     1     1     8    13
-2.8195135600e-02     1     1     9     2
-6.1978137800e-02     1     1     9     3
-6.1111450000e-04     1     1     9     4
 1.5439172000e-03     1     1     9     5
 8.4188200000e-03     1     1     9     6
 1.0491600000e-05     1     1     9     7
 1.2431200000e-05     1     1     9     8
 3.2868553870e-01     1     1     9     9
 1.5838978700e-02     1     1     9    10
-7.0242800000e-05     1     1     9    11
-2.6845130000e-04     1     1     9    12
-3.6472060000e-04     1     1     9    13
-2.7122755000e-03     1     1    10     2
-4.5561924800e-02     1     1    10     3
-1.0757217000e-03     1     1    10     4
 5.0137600000e-04     1     1    10     5
 1.0491687400e-02     1     1    10     6
 2.6412630000e-04     1     1    10     7
-1.7773330000e-04     1     1    10     8
 1.5838978700e-02     1     1    10     9
 3.5226260380e-01     1     1    10    10
 4.6505600000e-05     1     1    10    11
-1.6756000000e-05     1     1    10    12
-1.7958620000e-04     1     1    10    13
-6.4371100000e-05     1     1    11     2
-7.3023710000e-04     1     1    11     3
-1.4857910000e-04     1     1    11     4
-4.1034782300e-02     1     1    11     5
 3.7729090000e-04     1     1    11     6
 1.5021189900e-02     1     1    11     7
 3.5426379000e-03     1     1    11     8
-7.0242800000e-05     1     1    11     9
 4.6505600000e-05     1     1    11    10
 3.5026543100e-01     1     1    11    11
-3.3850600000e-05     1     1    11    12
 5.2939850000e-04     1     1    11    13
 6.4766700000e-05     1     1    12     2
 1.1145955000e-03     1     1    12     3
-4.0798107400e-02     1     1    12     4
 3.0749900000e-04     1     1    12     5
-3.3293390000e-04     1     1    12     6
 3.4438796000e-03     1     1    12     7
-1.4947860200e-02     1     1    12     8
-2.6845130000e-04     1     1    12     9
-1.6756000000e-05     1     1    12    10
-3.3850600000e-05     1     1    12    11
 3.5012832670e-01     1     1    12    12
 9.1398760000e-04     1     1    12    13
 6.6510600000e-05     1     1    13     2
 1.0754364000e-03     1     1    13     3
-5.0630841000e-03     1     1    13     4
-2.9400975000e-03     1     1    13     5
-2.9795240000e-04     1     1    13     6
 1.4107414000e-03     1     1    13     7
-1.4963920000e-03     1     1    13     8
-3.6472060000e-04     1     1    13     9
-1.7958620000e-04     1     1    13    10
 5.2939850000e-04     1     1    13    11
 9.1398760000e-04     1     1    13    12
 3.3826749760e-01     1     1    13    13
-2.3137557680e-01     1     2     2     1
 3.4535024200e-02     1     2     2     3
 1.5640830000e-04     1     2     2     4
-7.3252800000e-05     1     2     2     5
-4.7050694600e-02     1     2     2     6
 7.7816200000e-05     1     2     2     7
 4.2354800000e-05     1     2     2     8
 4.1760042000e-03     1     2     2     9
-1.5987631000e-03     1     2     2    10
-3.2642600000e-05     1     2     2    11
 3.7953800000e-05     1     2     2    12
 3.9336700000e-05     1     2     2    13
 1.4853611000e-03     1     2     3     1
-8.0892408200e-02     1     2     3     3
-1.3172400000e-05     1     2     3     4
 7.4550000000e-06     1     2     3     5
-7.5526181000e-03     1     2     3     6
 1.1153236000e-03     1     2     3     7
 7.9126960000e-04     1     2     3     8
 5.2046540700e-02     1     2     3     9
 1.0360905700e-02     1     2     3    10
 1.9458410000e-04     1     2     3    11
-2.6504770000e-04     1     2     3    12
-2.4002180000e-04     1     2     3    13
 7.0057000000e-06     1     2     4     1
-1.3492600000e-05     1     2     4     3
-7.8952513600e-02     1     2     4     4
 5.3800000000e-08     1     2     4     5
-3.7873700000e-05     1     2     4     6
 1.2242394200e-02     1     2     4     7
-5.1135535500e-02     1     2     4     8
 5.1716100000e-04     1     2     4     9
 2.5837960000e-04     1     2     4    10
 3.5952600000e-05     1     2     4    11
 1.0450134900e-02     1     2     4    12
 1.2735916000e-03     1     2     4    13
 2.6178000000e-06     1     2     5     1
 6.9551000000e-06     1     2     5     3
 4.1200000000e-08     1     2     5     4
-7.8949799200e-02     1     2     5     5
 9.0835000000e-06     1     2     5     6
 5.1129801200e-02     1     2     5     7
 1.2226702700e-02     1     2     5     8
-1.3073278000e-03     1     2     5     9
-9.3897100000e-05     1     2     5    10
 1.0501360600e-02     1     2     5    11
-8.0993100000e-05     1     2     5    12
 7.3603470000e-04     1     2     5    13
-6.6223133700e-02     1     2     6     1
-1.9587702000e-03     1     2     6     3
-1.0901000000e-05     1     2     6     4
-9.0940000000e-07     1     2     6     5
-7.7591508700e-02     1     2     6     6
-2.6888890000e-04     1     2     6     7
-1.3085690000e-04     1     2     6     8
-1.3419106200e-02     1     2     6     9
-9.1011406000e-03     1     2     6    10
-3.1614410000e-04     1     2     6    11
 2.7914870000e-04     1     2     6    12
 2.4505860000e-04     1     2     6    13
 5.7336500000e-04     1     2     7     1
 5.7566050000e-04     1     2     7     3
 6.5718309000e-03     1     2     7     4
 2.7453249600e-02     1     2     7     5
-8.4697300000e-05     1     2     7     6
-7.5928834300e-02     1     2     7     7
-2.6870000000e-07     1     2     7     8
 1.0018200000e-05     1     2     7     9
-1.6882850000e-04     1     2     7    10
-9.7431709000e-03     1     2     7    11
-2.2365208000e-03     1     2     7    12
-9.4986220000e-04     1     2     7    13
 2.9495620000e-04     1     2     8     1
 4.1315520000e-04     1     2     8     3
-2.7455271100e-02     1     2     8     4
 6.5637441000e-03     1     2     8     5
-3.7299700000e-05     1     2     8     6
 7.5730000000e-07     1     2     8     7
-7.5916818800e-02     1     2     8     8
-1.9791000000e-06     1     2     8     9
 1.1570410000e-04     1     2     8    10
-2.2993225000e-03     1     2     8    11
 9.7006882000e-03     1     2     8    12
 1.0089653000e-03     1     2     8    13
 2.8195135600e-02     1     2     9     1
 2.6832992600e-02     1     2     9     3
 2.7290500000e-04     1     2     9     4
-6.9941810000e-04     1     2     9     5
-4.3040975000e-03     1     2     9     6
 1.0133900000e-05     1     2     9     7
-2.9243000000e-06     1     2     9     8
-8.0193855000e-02     1     2     9     9
-1.0262699500e-02     1     2     9    10
 7.8832300000e-05     1     2     9    11
 1.6032930000e-04     1     2     9    12
 2.4045800000e-04     1     2     9    13
 2.7122755000e-03     1     2    10     1
 5.7928841000e-03     1     2    10     3
 1.4133250000e-04     1     2    10     4
-5.1416700000e-05     1     2    10     5
-6.2135908000e-03     1     2    10     6
-2.3084630000e-04     1     2    10     7
 1.5912030000e-04     1     2    10     8
-1.4504330100e-02     1     2    10     9
-9.8339086000e-02     1     2    10    10
-3.5096400000e-05     1     2    10    11
-5.0097000000e-06     1     2    10    12
 1.7429860000e-04     1     2    10    13
 6.4371100000e-05     1     2    11     1
 1.0360410000e-04     1     2    11     3
 1.9676400000e-05     1     2    11     4
 5.7179011000e-03     1     2    11     5
-2.3677000000e-04     1     2    11     6
-1.3218014100e-02     1     2    11     7
-3.1169773000e-03     1     2    11     8
 1.0514660000e-04     1     2    11     9
-3.7640000000e-05     1     2    11    10
-9.7461932000e-02     1     2    11    11
 3.5863900000e-05     1     2    11    12
-5.7694340000e-04     1     2    11    13
-6.4766700000e-05     1     2    12     1
-1.4574570000e-04     1     2    12     3
 5.6901908000e-03     1     2    12     4
-4.4150800000e-05     1     2    12     5
 2.0219590000e-04     1     2    12     6
-3.0351651000e-03     1     2    12     7
 1.3156822500e-02     1     2    12     8
 2.2564640000e-04     1     2    12     9
-3.1592000000e-06     1     2    12    10
 3.5855400000e-05     1     2    12    11
-9.7343058400e-02     1     2    12    12
-9.9243590000e-04     1     2    12    13
-6.6510600000e-05     1     2    13     1
-1.3421570000e-04     1     2    13     3
 6.9519440000e-04     1     2    13     4
 4.0186970000e-04     1     2    13     5
 1.7200390000e-04     1     2    13     6
-1.3010070000e-03     1     2    13     7
 1.3806456000e-03     1     2    13     8
 3.4319900000e-04     1     2    13     9
 1.7307990000e-04     1     2    13    10
-5.7570590000e-04     1     2    13    11
-9.9097430000e-04     1     2    13    12
-8.6692353000e-02     1     2    13    13
 1.4853611000e-03     1     3     2     1
-3.4535024200e-02     1     3     2     2
 3.2020000000e-07     1     3     2     4
 4.9990000000e-07     1     3     2     5
-5.5938479000e-03     1     3     2     6
 5.3966310000e-04     1     3     2     7
 3.7811440000e-04     1     3     2     8
 2.5213548100e-02     1     3     2     9
 4.5680216000e-03     1     3     2    10
 9.0980000000e-05     1     3     2    11
-1.1930200000e-04     1     3     2    12
-1.0580610000e-04     1     3     2    13
-2.9648831550e-01     1     3     3     1
 8.0892408200e-02     1     3     3     2
 1.8590800000e-04     1     3     3     4
-9.3392300000e-05     1     3     3     5
 2.6249742600e-02     1     3     3     6
 1.1564050000e-04     1     3     3     7
 4.4562800000e-05     1     3     3     8
 6.7013525000e-03     1     3     3     9
 4.2806006300e-02     1     3     3    10
 7.5032900000e-04     1     3     3    11
-1.1900362000e-03     1     3     3    12
-1.0208107000e-03     1     3     3    13
 3.8215000000e-06     1     3     4     1
 1.3492600000e-05     1     3     4     2
-4.1625971000e-02     1     3     4     4
-4.5000000000e-09     1     3     4     5
 6.4542000000e-06     1     3     4     6
 1.1407550000e-04     1     3     4     7
-4.7172970000e-04     1     3     4     8
 7.4190000000e-07     1     3     4     9
 1.0332761000e-03     1     3     4    10
 1.1905000000e-04     1     3     4    11
 3.4990286900e-02     1     3     4    12
 4.4635938000e-03     1     3     4    13
-1.7773000000e-06     1     3     5     1
-6.9551000000e-06     1     3     5     2
-8.0000000000e-10     1     3     5     4
-4.1625745600e-02     1     3     5     5
-4.0150000000e-06     1     3     5     6
 4.8007500000e-04     1     3     5     7
 1.1317060000e-04     1     3     5     8
-3.2260600000e-05     1     3     5     9
-5.1164550000e-04     1     3     5    10
 3.5222263200e-02     1     3     5    11
-2.4592860000e-04     1     3     5    12
 2.4886029000e-03     1     3     5    13
 3.7897604000e-03     1     3     6     1
 1.9587702000e-03     1     3     6     2
-4.9950000000e-07     1     3     6     4
-7.0540000000e-07     1     3     6     5
-4.1937654700e-02     1     3     6     6
 2.5923120000e-04     1     3     6     7
 1.8414000000e-04     1     3     6     8
 1.3154246100e-02     1     3     6     9
 3.3121072000e-03     1     3     6    10
 5.8387400000e-05     1     3     6    11
-8.2729400000e-05     1     3     6    12
-6.5987200000e-05     1     3     6    13
 1.3143561000e-03     1     3     7     1
-5.7566050000e-04     1     3     7     2
 5.4315410000e-04     1     3     7     4
 2.2686053000e-03     1     3     7     5
-2.3061730000e-04     1     3     7     6
-4.4194015900e-02     1     3     7     7
 5.1670000000e-07     1     3     7     8
 4.2676300000e-05     1     3     7     9
-2.3316940000e-04     1     3     7    10
-1.1172423400e-02     1     3     7    11
-2.5628226000e-03     1     3     7    12
-1.0398389000e-03     1     3     7    13
 9.2745550000e-04     1     3     8     1
-4.1315520000e-04     1     3     8     2
-2.2684121000e-03     1     3     8     4
 5.4278690000e-04     1     3     8     5
-1.6994350000e-04     1     3     8     6
 4.1900000000e-07     1     3     8     7
-4.4193755800e-02     1     3     8     8
 3.0720600000e-05     1     3     8     9
 1.2775420000e-04     1     3     8    10
-2.6338282000e-03     1     3     8    11
 1.1106208300e-02     1     3     8    12
 1.1321691000e-03     1     3     8    13
 6.1978137800e-02     1     3     9     1
-2.6832992600e-02     1     3     9     2
 1.2467100000e-05     1     3     9     4
-5.2601200000e-05     1     3     9     5
-9.9981679000e-03     1     3     9     6
 3.7568200000e-05     1     3     9     7
 2.1475200000e-05     1     3     9     8
-4.2818477700e-02     1     3     9     9
-1.3811433100e-02     1     3     9    10
-1.2118600000e-05     1     3     9    11
 2.7767010000e-04     1     3     9    12
 3.1923490000e-04     1     3     9    13
 4.5561924800e-02     1     3    10     1
-5.7928841000e-03     1     3    10     2
 3.3155000000e-05     1     3    10     4
-1.5758600000e-05     1     3    10     5
-8.4078080000e-04     1     3    10     6
-2.1278800000e-05     1     3    10     7
-1.2792500000e-05     1     3    10     8
-1.2349380000e-04     1     3    10     9
-4.2425877800e-02     1     3    10    10
-3.5802800000e-05     1     3    10    11
 6.1310000000e-05     1     3    10    12
 2.2765900000e-05     1     3    10    13
 7.3023710000e-04     1     3    11     1
-1.0360410000e-04     1     3    11     2
 5.6180000000e-06     1     3    11     4
 1.5791173000e-03     1     3    11     5
-2.5304800000e-05     1     3    11     6
-2.4660090000e-04     1     3    11     7
-5.6961800000e-05     1     3    11     8
-3.5443100000e-05     1     3    11     9
-1.0593000000e-05     1     3    11    10
-4.0868321900e-02     1     3    11    11
-2.8457000000e-06     1     3    11    12
 4.4554000000e-05     1     3    11    13
-1.1145955000e-03     1     3    12     1
 1.4574570000e-04     1     3    12     2
 1.5704462000e-03     1     3    12     4
-1.1756400000e-05     1     3    12     5
 2.4794400000e-05     1     3    12     6
-5.2451400000e-05     1     3    12     7
 2.4374310000e-04     1     3    12     8
 7.9507000000e-06     1     3    12     9
 9.2359000000e-06     1     3    12    10
 2.4806000000e-06     1     3    12    11
-4.0858109100e-02     1     3    12    12
 6.0850000000e-05     1     3    12    13
-1.0754364000e-03     1     3    13     1
 1.3421570000e-04     1     3    13     2
 1.9861010000e-04     1     3    13     4
 1.1583960000e-04     1     3    13     5
 2.6538400000e-05     1     3    13     6
 3.3301200000e-05     1     3    13     7
-4.4405600000e-05     1     3    13     8
-1.0214600000e-05     1     3    13     9
 1.9114100000e-05     1     3    13    10
 3.7836400000e-05     1     3    13    11
 8.6835300000e-05     1     3    13    12
-4.0390577400e-02     1     3    13    13
 7.0057000000e-06     1     4     2     1
-1.5640830000e-04     1     4     2     2
-3.2020000000e-07     1     4     2     3
 1.2600000000e-08     1     4     2     5
-2.6972700000e-05     1     4     2     6
 5.6705633000e-03     1     4     2     7
-2.3680264400e-02     1     4     2     8
 2.4425600000e-04     1     4     2     9
 1.1704710000e-04     1     4     2    10
 1.6276200000e-05     1     4     2    11
 4.7599441000e-03     1     4     2    12
 5.7839720000e-04     1     4     2    13
 3.8215000000e-06     1     4     3     1
 1.3172400000e-05     1     4     3     2
-1.8590800000e-04     1     4     3     3
-3.7000000000e-09     1     4     3     5
 6.9537000000e-06     1     4     3     6
-4.2907860000e-04     1     4     3     7
 1.7966824000e-03     1     4     3     8
-1.1725200000e-05     1     4     3     9
 1.0001211000e-03     1     4     3    10
 1.1343200000e-04     1     4     3    11
 3.3419840700e-02     1     4     3    12
 4.2649837000e-03     1     4     3    13
-2.9904395120e-01     1     4     4     1
 7.8952513600e-02     1     4     4     2
 4.1625971000e-02     1     4     4     3
-9.3654200000e-05     1     4     4     5
 2.5236739400e-02     1     4     4     6
 1.7167490000e-04     1     4     4     7
 9.3406000000e-05     1     4     4     8
 7.9807085000e-03     1     4     4     9
-1.7912916800e-02     1     4     4    10
 2.8131405000e-03     1     4     4    11
 2.6568106000e-03     1     4     4    12
-2.6406910500e-02     1     4     4    13
 1.6800000000e-08     1     4     5     1
-4.1200000000e-08     1     4     5     2
 8.0000000000e-10     1     4     5     3
-1.8644960000e-04     1     4     5     5
-2.5300000000e-08     1     4     5     6
 4.2696000000e-06     1     4     5     7
-3.7955000000e-06     1     4     5     8
-3.4620000000e-07     1     4     5     9
-3.6288990000e-04     1     4     5    10
 5.8191360000e-04     1     4     5    11
-4.3269669000e-03     1     4     5    12
 1.7354088300e-02     1     4     5    13
 1.2499700000e-05     1     4     6     1
 1.0901000000e-05     1     4     6     2
 4.9950000000e-07     1     4     6     3
-1.0800000000e-08     1     4     6     5
-1.8678950000e-04     1     4     6     6
 2.7710379000e-03     1     4     6     7
-1.1566955300e-02     1     4     6     8
 1.2883240000e-04     1     4     6     9
 1.0801520000e-04     1     4     6    10
 1.4960200000e-05     1     4     6    11
 4.7800828000e-03     1     4     6    12
 5.5474710000e-04     1     4     6    13
 1.4297797700e-02     1     4     7     1
-6.5718309000e-03     1     4     7     2
-5.4315410000e-04     1     4     7     3
 1.1630200000e-05     1     4     7     5
-2.8913143000e-03     1     4     7     6
-1.8949780000e-04     1     4     7     7
 1.4371800000e-05     1     4     7     8
 4.4480380000e-04     1     4     7     9
 6.0775700000e-04     1     4     7    10
-3.3460890000e-04     1     4     7    11
 7.0680030000e-04     1     4     7    12
-2.1641568000e-03     1     4     7    13
-5.9713374200e-02     1     4     8     1
 2.7455271100e-02     1     4     8     2
 2.2684121000e-03     1     4     8     3
-3.0316000000e-06     1     4     8     5
 1.2081848900e-02     1     4     8     6
-3.7558300000e-05     1     4     8     7
-2.1767030000e-04     1     4     8     8
-1.8559645000e-03     1     4     8     9
-2.1688874000e-03     1     4     8    10
 7.3685670000e-04     1     4     8    11
 7.0579780000e-04     1     4     8    12
-6.6355258000e-03     1     4     8    13
 6.1111450000e-04     1     4     9     1
-2.7290500000e-04     1     4     9     2
-1.2467100000e-05     1     4     9     3
-2.1040000000e-07     1     4     9     5
-1.0738780000e-04     1     4     9     6
-1.2832750000e-04     1     4     9     7
 5.3942750000e-04     1     4     9     8
-1.8500380000e-04     1     4     9     9
-1.9499580000e-04     1     4     9    10
-2.5990200000e-05     1     4     9    11
-6.4764131000e-03     1     4     9    12
-5.9361340000e-04     1     4     9    13
 1.0757217000e-03     1     4    10     1
-1.4133250000e-04     1     4    10     2
-3.3155000000e-05     1     4    10     3
 1.5100000000e-08     1     4    10     5
-7.3561000000e-06     1     4    10     6
-3.0363610000e-04     1     4    10     7
 1.1946643000e-03     1     4    10     8
 4.9187900000e-05     1     4    10     9
-1.6108690000e-04     1     4    10    10
-6.8250800000e-05     1     4    10    11
-5.1906797000e-03     1     4    10    12
-5.0163370000e-04     1     4    10    13
 1.4857910000e-04     1     4    11     1
-1.9676400000e-05     1     4    11     2
-5.6180000000e-06     1     4    11     3
 7.3609000000e-06     1     4    11     5
-1.4077000000e-06     1     4    11     6
 4.2055900000e-05     1     4    11     7
-7.5673500000e-05     1     4    11     8
 8.3777000000e-06     1     4    11     9
 5.9265600000e-05     1     4    11    10
-1.6557900000e-04     1     4    11    11
 6.0969510000e-04     1     4    11    12
-1.2249811000e-03     1     4    11    13
 4.0798107400e-02     1     4    12     1
-5.6901908000e-03     1     4    12     2
-1.5704462000e-03     1     4    12     3
 4.4640000000e-06     1     4    12     5
-1.7418050000e-04     1     4    12     6
-1.9317100000e-04     1     4    12     7
-1.7072580000e-04     1     4    12     8
 2.5539170000e-03     1     4    12     9
 6.0694633000e-03     1     4    12    10
-7.8228170000e-04     1     4    12    11
-1.7626460000e-04     1     4    12    12
 2.2064721000e-03     1     4    12    13
 5.0630841000e-03     1     4    13     1
-6.9519440000e-04     1     4    13     2
-1.9861010000e-04     1     4    13     3
 1.3168000000e-06     1     4    13     5
-4.0260200000e-05     1     4    13     6
 1.0196840000e-03     1     4    13     7
 1.9868679000e-03     1     4    13     8
 3.3092350000e-04     1     4    13     9
 7.2660860000e-04     1     4    13    10
 2.3867359000e-03     1     4    13    11
-3.1001321000e-03     1     4    13    12
-2.0252120000e-04     1     4    13    13
 2.6178000000e-06     1     5     2     1
 7.3252800000e-05     1     5     2     2
-4.9990000000e-07     1     5     2     3
-1.2600000000e-08     1     5     2     4
 9.9929000000e-06     1     5     2     6
 2.3676551600e-02     1     5     2     7
 5.6629586000e-03     1     5     2     8
-6.0790970000e-04     1     5     2     9
-4.2480400000e-05     1     5     2    10
 4.7834595000e-03     1     5     2    11
-3.6842300000e-05     1     5     2    12
 3.3416500000e-04     1     5     2    13
-1.7773000000e-06     1     5     3     1
-7.4550000000e-06     1     5     3     2
 9.3392300000e-05     1     5     3     3
 3.7000000000e-09     1     5     3     4
-3.3096000000e-06     1     5     3     6
-1.7885303000e-03     1     5     3     7
-4.2961630000e-04     1     5     3     8
 2.0340600000e-05     1     5     3     9
-4.9588690000e-04     1     5     3    10
 3.3643145900e-02     1     5     3    11
-2.3417220000e-04     1     5     3    12
 2.3727633000e-03     1     5     3    13
 1.6800000000e-08     1     5     4     1
-5.3800000000e-08     1     5     4     2
 4.5000000000e-09     1     5     4     3
 9.3654200000e-05     1     5     4     4
-1.4500000000e-08     1     5     4     6
-7.3606000000e-06     1     5     4     7
-7.6390000000e-07     1     5     4     8
-1.3580000000e-07     1     5     4     9
-3.6290500000e-04     1     5     4    10
 5.7455270000e-04     1     5     4    11
-4.3314309000e-03     1     5     4    12
 1.7352771500e-02     1     5     4    13
-2.9903903480e-01     1     5     5     1
 7.8949799200e-02     1     5     5     2
 4.1625745600e-02     1     5     5     3
 1.8644960000e-04     1     5     5     4
 2.5235319400e-02     1     5     5     6
 1.8213300000e-04     1     5     5     7
 8.1302500000e-05     1     5     5     8
 7.9816987000e-03     1     5     5     9
-1.5808042700e-02     1     5     5    10
-3.3578810000e-03     1     5     5    11
-1.6891637000e-03     1     5     5    12
 2.7200372100e-02     1     5     5    13
-1.7226600000e-05     1     5     6     1
 9.0940000000e-07     1     5     6     2
 7.0540000000e-07     1     5     6     3
 1.0800000000e-08     1     5     6     4
 9.6283700000e-05     1     5     6     6
 1.1566354800e-02     1     5     6     7
 2.7664887000e-03     1     5     6     8
-3.2639090000e-04     1     5     6     9
-3.4129300000e-05     1     5     6    10
 4.8036197000e-03     1     5     6    11
-3.9468600000e-05     1     5     6    12
 3.2338450000e-04     1     5     6    13
 5.9714122800e-02     1     5     7     1
-2.7453249600e-02     1     5     7     2
-2.2686053000e-03     1     5     7     3
-1.1630200000e-05     1     5     7     4
-1.2080127300e-02     1     5     7     6
 1.3356580000e-04     1     5     7     7
 1.8841600000e-05     1     5     7     8
 1.8574417000e-03     1     5     7     9
 1.6809292000e-03     1     5     7    10
 5.5926640000e-04     1     5     7    11
 7.2128210000e-04     1     5     7    12
-6.6865181000e-03     1     5     7    13
 1.4278416100e-02     1     5     8     1
-6.5637441000e-03     1     5     8     2
-5.4278690000e-04     1     5     8     3
 3.0316000000e-06     1     5     8     4
-2.8884736000e-03     1     5     8     6
 3.2238000000e-06     1     5     8     7
 1.0352810000e-04     1     5     8     8
 4.4407160000e-04     1     5     8     9
 3.1002680000e-04     1     5     8    10
 2.0037720000e-04     1     5     8    11
-8.7750720000e-04     1     5     8    12
 2.1274151000e-03     1     5     8    13
-1.5439172000e-03     1     5     9     1
 6.9941810000e-04     1     5     9     2
 5.2601200000e-05     1     5     9     3
 2.1040000000e-07     1     5     9     4
 2.8659750000e-04     1     5     9     6
-5.4020240000e-04     1     5     9     7
-1.2929340000e-04     1     5     9     8
 5.8087500000e-05     1     5     9     9
 6.0125300000e-05     1     5     9    10
-6.5173562000e-03     1     5     9    11
 4.1851600000e-05     1     5     9    12
-2.9611270000e-04     1     5     9    13
-5.0137600000e-04     1     5    10     1
 5.1416700000e-05     1     5    10     2
 1.5758600000e-05     1     5    10     3
-1.5100000000e-08     1     5    10     4
 3.9492000000e-06     1     5    10     6
-1.1251839000e-03     1     5    10     7
-2.4915950000e-04     1     5    10     8
 4.2000000000e-08     1     5    10     9
 7.7959500000e-05     1     5    10    10
-5.0015716000e-03     1     5    10    11
 8.3560000000e-07     1     5    10    12
-3.1603920000e-04     1     5    10    13
 4.1034782300e-02     1     5    11     1
-5.7179011000e-03     1     5    11     2
-1.5791173000e-03     1     5    11     3
-7.3609000000e-06     1     5    11     4
-1.7351280000e-04     1     5    11     6
-1.2763360000e-04     1     5    11     7
-4.2760900000e-05     1     5    11     8
 2.5604204000e-03     1     5    11     9
 5.8730446000e-03     1     5    11    10
 5.5611100000e-05     1     5    11    11
 1.4864780000e-04     1     5    11    12
-2.4797869000e-03     1     5    11    13
-3.0749900000e-04     1     5    12     1
 4.4150800000e-05     1     5    12     2
 1.1756400000e-05     1     5    12     3
-4.4640000000e-06     1     5    12     4
 3.2730000000e-07     1     5    12     6
-1.1616320000e-04     1     5    12     7
 2.5563440000e-04     1     5    12     8
-1.9509700000e-05     1     5    12     9
-2.1341300000e-05     1     5    12    10
-1.5043550000e-04     1     5    12    11
-8.9496000000e-05     1     5    12    12
-1.3114007000e-03     1     5    12    13
 2.9400975000e-03     1     5    13     1
-4.0186970000e-04     1     5    13     2
-1.1583960000e-04     1     5    13     3
-1.3168000000e-06     1     5    13     4