&FCI NORB= 13,NELEC=  2,MS2=0,
 ORBSYM=1,1,1,1,1,1,1,1,1,1,1,1,1
 ISYM=1,
&END
 1.7485860140e-01     1     1     2     2
-9.9849383000e-03     1     1     2     3
 9.6579400000e-05     1     1     2     4
-1.6947850000e-04     1     1     2     5
-5.4835090500e-02     1     1     2     6
-2.1629387500e-02     1     1     2     7
 4.3175310000e-04     1     1     2     8
 1.4900530000e-04     1     1     2     9
-1.5018333000e-03     1     1     2    10
-7.1420300000e-05     1     1     2    11
 3.0533680000e-04     1     1     2    12
-1.3223527000e-03     1     1     2    13
-9.9849383000e-03     1     1     3     2
 2.8402599770e-01     1     1     3     3
 4.4731000000e-06     1     1     3     4
-1.0756600000e-05     1     1     3     5
-2.3408856000e-03     1     1     3     6
 6.1567190100e-02     1     1     3     7
-1.0264672000e-03     1     1     3     8
-3.6295750000e-04     1     1     3     9
-1.9186668700e-02     1     1     3    10
-2.1665772000e-03     1     1     3    11
 9.0836449000e-03     1     1     3    12
-3.8373797700e-02     1     1     3    13
 9.6579400000e-05     1     1     4     2
 4.4731000000e-06     1     1     4     3
 2.8924294400e-01     1     1     4     4
-9.6000000000e-09     1     1     4     5
 2.5470600000e-05     1     1     4     6
 2.9243900000e-04     1     1     4     7
 3.4936877100e-02     1     1     4     8
-5.3869299700e-02     1     1     4     9
 8.6822000000e-05     1     1     4    10
 1.1085000800e-02     1     1     4    11
 2.9342951800e-02     1     1     4    12
 6.3515155000e-03     1     1     4    13
-1.6947850000e-04     1     1     5     2
-1.0756600000e-05     1     1     5     3
-9.6000000000e-09     1     1     5     4
 2.8922843410e-01     1     1     5     5
-4.2493900000e-05     1     1     5     6
-1.1789000000e-03     1     1     5     7
-5.3868816400e-02     1     1     5     8
-3.4946461800e-02     1     1     5     9
-2.1365250000e-04     1     1     5    10
-2.9978701300e-02     1     1     5    11
 1.0451496200e-02     1     1     5    12
 3.9917189000e-03     1     1     5    13
-5.4835090500e-02     1     1     6     2
-2.3408856000e-03     1     1     6     3
 2.5470600000e-05     1     1     6     4
-4.2493900000e-05     1     1     6     5
 2.8842058390e-01     1     1     6     6
-2.4175153900e-02     1     1     6     7
 5.5066210000e-04     1     1     6     8
 1.8946560000e-04     1     1     6     9
-8.3424324900e-02     1     1     6    10
-7.0788820000e-04     1     1     6    11
 3.2905486000e-03     1     1     6    12
-1.3978070500e-02     1     1     6    13
-2.1629387500e-02     1     1     7     2
 6.1567190100e-02     1     1     7     3
 2.9243900000e-04     1     1     7     4
-1.1789000000e-03     1     1     7     5
-2.4175153900e-02     1     1     7     6
 3.0645404030e-01     1     1     7     7
-5.2713000000e-06     1     1     7     8
-6.2393000000e-06     1     1     7     9
 2.4891898000e-03     1     1     7    10
-5.2494400000e-04     1     1     7    11
 3.3968551000e-03     1     1     7    12
-1.4994114100e-02     1     1     7    13
 4.3175310000e-04     1     1     8     2
-1.0264672000e-03     1     1     8     3
 3.4936877100e-02     1     1     8     4
-5.3868816400e-02     1     1     8     5
 5.5066210000e-04     1     1     8     6
-5.2713000000e-06     1     1     8     7
 3.0476981450e-01     1     1     8     8
-7.0758000000e-06     1     1     8     9
-5.3050500000e-05     1     1     8    10
 1.5883627500e-02     1     1     8    11
 3.6372666000e-03     1     1     8    12
 2.8287780000e-04     1     1     8    13
 1.4900530000e-04     1     1     9     2
-3.6295750000e-04     1     1     9     3
-5.3869299700e-02     1     1     9     4
-3.4946461800e-02     1     1     9     5
 1.8946560000e-04     1     1     9     6
-6.2393000000e-06     1     1     9     7
-7.0758000000e-06     1     1     9     8
 3.0481546800e-01     1     1     9     9
-1.2537000000e-06     1     1     9    10
 3.5598210000e-03     1     1     9    11
-1.5438222400e-02     1     1     9    12
-3.7508523000e-03     1     1     9    13
-1.5018333000e-03     1     1    10     2
-1.9186668700e-02     1     1    10     3
 8.6822000000e-05     1     1    10     4
-2.1365250000e-04     1     1    10     5
-8.3424324900e-02     1     1    10     6
 2.4891898000e-03     1     1    10     7
-5.3050500000e-05     1     1    10     8
-1.2537000000e-06     1     1    10     9
 3.3766833280e-01     1     1    10    10
 4.2780800000e-05     1     1    10    11
-2.7369260000e-04     1     1    10    12
 1.2387800000e-03     1     1    10    13
-7.1420300000e-05     1     1    11     2
-2.1665772000e-03     1     1    11     3
 1.1085000800e-02     1     1    11     4
-2.9978701300e-02     1     1    11     5
-7.0788820000e-04     1     1    11     6
-5.2494400000e-04     1     1    11     7
 1.5883627500e-02     1     1    11     8
 3.5598210000e-03     1     1    11     9
 4.2780800000e-05     1     1    11    10
 3.3319429910e-01     1     1    11    11
-2.0894600000e-05     1     1    11    12
 7.1583500000e-05     1     1    11    13
 3.0533680000e-04     1     1    12     2
 9.0836449000e-03     1     1    12     3
 2.9342951800e-02     1     1    12     4
 1.0451496200e-02     1     1    12     5
 3.2905486000e-03     1     1    12     6
 3.3968551000e-03     1     1    12     7
 3.6372666000e-03     1     1    12     8
-1.5438222400e-02     1     1    12     9
-2.7369260000e-04     1     1    12    10
-2.0894600000e-05     1     1    12    11
 3.3339221160e-01     1     1    12    12
-2.4924540000e-04     1     1    12    13
-1.3223527000e-03     1     1    13     2
-3.8373797700e-02     1     1    13     3
 6.3515155000e-03     1     1    13     4
 3.9917189000e-03     1     1    13     5
-1.3978070500e-02     1     1    13     6
-1.4994114100e-02     1     1    13     7
 2.8287780000e-04     1     1    13     8
-3.7508523000e-03     1     1    13     9
 1.2387800000e-03     1     1    13    10
 7.1583500000e-05     1     1    13    11
-2.4924540000e-04     1     1    13    12
 3.3651744920e-01     1     1    13    13
-1.7485860140e-01     1     2     2     1
-1.8774173700e-02     1     2     2     3
-4.3765800000e-05     1     2     2     4
 4.5096800000e-05     1     2     2     5
 3.9063651500e-02     1     2     2     6
 7.9933801000e-03     1     2     2     7
-1.7376630000e-04     1     2     2     8
-5.4255400000e-05     1     2     2     9
-4.6272214000e-03     1     2     2    10
 2.5254600000e-05     1     2     2    11
-1.0594030000e-04     1     2     2    12
 4.5490700000e-04     1     2     2    13
 9.9849383000e-03     1     2     3     1
-8.8304296200e-02     1     2     3     3
 9.1655000000e-06     1     2     3     4
-1.8002500000e-05     1     2     3     5
-3.4568409000e-03     1     2     3     6
-4.4710514000e-02     1     2     3     7
 7.4212420000e-04     1     2     3     8
 2.6280350000e-04     1     2     3     9
 1.8282828700e-02     1     2     3    10
 6.5870500000e-04     1     2     3    11
-2.7089604000e-03     1     2     3    12
 1.1507684400e-02     1     2     3    13
-9.6579400000e-05     1     2     4     1
 9.9310000000e-07     1     2     4     3
-8.7808657300e-02     1     2     4     4
-3.0300000000e-08     1     2     4     5
-3.6773500000e-05     1     2     4     6
-2.4223460000e-04     1     2     4     7
-2.7015654400e-02     1     2     4     8
 4.1656646900e-02     1     2     4     9
-5.9463800000e-05     1     2     4    10
-2.8356133000e-03     1     2     4    11
-7.4945409000e-03     1     2     4    12
-1.6360842000e-03     1     2     4    13
 1.6947850000e-04     1     2     5     1
-4.9638000000e-06     1     2     5     3
 1.1700000000e-08     1     2     5     4
-8.7800942300e-02     1     2     5     5
 5.3754900000e-05     1     2     5     6
 9.3922660000e-04     1     2     5     7
 4.1651558600e-02     1     2     5     8
 2.7020397500e-02     1     2     5     9
 1.4945940000e-04     1     2     5    10
 7.6555375000e-03     1     2     5    11
-2.6722458000e-03     1     2     5    12
-9.9519710000e-04     1     2     5    13
 5.4835090500e-02     1     2     6     1
 1.1955912000e-03     1     2     6     3
-3.9753800000e-05     1     2     6     4
 6.5133800000e-05     1     2     6     5
-7.1083466700e-02     1     2     6     6
 2.7607600600e-02     1     2     6     7
-6.1267200000e-04     1     2     6     8
-2.0464330000e-04     1     2     6     9
 5.5334534400e-02     1     2     6    10
 6.0091250000e-04     1     2     6    11
-2.5855507000e-03     1     2     6    12
 1.0972344900e-02     1     2     6    13
 2.1629387500e-02     1     2     7     1
-2.8085884000e-02     1     2     7     3
-1.6139700000e-04     1     2     7     4
 6.2164410000e-04     1     2     7     5
 1.7747811500e-02     1     2     7     6
-8.5298688600e-02     1     2     7     7
-2.8829100000e-05     1     2     7     8
-1.3133900000e-05     1     2     7     9
 8.4692006000e-03     1     2     7    10
 5.3662160000e-04     1     2     7    11
-3.1041962000e-03     1     2     7    12
 1.3445295000e-02     1     2     7    13
-4.3175310000e-04     1     2     8     1
 4.6514730000e-04     1     2     8     3
-1.7711518600e-02     1     2     8     4
 2.7310730800e-02     1     2     8     5
-3.8332840000e-04     1     2     8     6
-3.2433000000e-05     1     2     8     7
-8.5844355700e-02     1     2     8     8
 3.6746000000e-06     1     2     8     9
-1.5847870000e-04     1     2     8    10
-1.1824821200e-02     1     2     8    11
-2.6947607000e-03     1     2     8    12
-2.5941370000e-04     1     2     8    13
-1.4900530000e-04     1     2     9     1
 1.6291950000e-04     1     2     9     3
 2.7311895200e-02     1     2     9     4
 1.7716701400e-02     1     2     9     5
-1.3408760000e-04     1     2     9     6
-1.2682300000e-05     1     2     9     7
 4.0169000000e-06     1     2     9     8
-8.5874962900e-02     1     2     9     9
-6.7417000000e-05     1     2     9    10
-2.6510864000e-03     1     2     9    11
 1.1485405300e-02     1     2     9    12
 2.7260356000e-03     1     2     9    13
 1.5018333000e-03     1     2    10     1
 1.5290486300e-02     1     2    10     3
-5.6738500000e-05     1     2    10     4
 1.3219410000e-04     1     2    10     5
 4.5922964300e-02     1     2    10     6
 5.8947648000e-03     1     2    10     7
-1.1058140000e-04     1     2    10     8
-4.9737600000e-05     1     2    10     9
-1.1160919770e-01     1     2    10    10
-1.8008920000e-04     1     2    10    11
 8.1249800000e-04     1     2    10    12
-3.4369057000e-03     1     2    10    13
 7.1420300000e-05     1     2    11     1
 5.2547830000e-04     1     2    11     3
-2.1185453000e-03     1     2    11     4
 5.7190595000e-03     1     2    11     5
 5.3038220000e-04     1     2    11     6
 6.0136000000e-04     1     2    11     7
-1.4031742500e-02     1     2    11     8
-3.1498461000e-03     1     2    11     9
-2.1916040000e-04     1     2    11    10
-1.0787536750e-01     1     2    11    11
 2.9142500000e-05     1     2    11    12
-1.2173240000e-04     1     2    11    13
-3.0533680000e-04     1     2    12     1
-2.1625518000e-03     1     2    12     3
-5.5971071000e-03     1     2    12     4
-1.9970590000e-03     1     2    12     5
-2.2651187000e-03     1     2    12     6
-3.5448598000e-03     1     2    12     7
-3.1957906000e-03     1     2    12     8
 1.3634034700e-02     1     2    12     9
 9.7857210000e-04     1     2    12    10
 2.9084900000e-05     1     2    12    11
-1.0805449740e-01     1     2    12    12
 4.4771980000e-04     1     2    12    13
 1.3223527000e-03     1     2    13     1
 9.1846106000e-03     1     2    13     3
-1.2234351000e-03     1     2    13     4
-7.3483850000e-04     1     2    13     5
 9.6084394000e-03     1     2    13     6
 1.5314600100e-02     1     2    13     7
-2.9440680000e-04     1     2    13     8
 3.2533786000e-03     1     2    13     9
-4.1428111000e-03     1     2    13    10
-1.2321400000e-04     1     2    13    11
 4.5116920000e-04     1     2    13    12
-1.1104535060e-01     1     2    13    13
 9.9849383000e-03     1     3     2     1
 1.8774173700e-02     1     3     2     2
 8.1724000000e-06     1     3     2     4
-1.3038700000e-05     1     3     2     5
-4.6524321000e-03     1     3     2     6
-1.6624630000e-02     1     3     2     7
 2.7697690000e-04     1     3     2     8
 9.9884000000e-05     1     3     2     9
 2.9923424000e-03     1     3     2    10
 1.3322670000e-04     1     3     2    11
-5.4640860000e-04     1     3     2    12
 2.3230738000e-03     1     3     2    13
-2.8402599770e-01     1     3     3     1
 8.8304296200e-02     1     3     3     2
 8.3546800000e-05     1     3     3     4
-1.8855100000e-04     1     3     3     5
-3.1851620900e-02     1     3     3     6
 2.0272098400e-02     1     3     3     7
-3.3679300000e-04     1     3     3     8
-1.3038890000e-04     1     3     3     9
 1.5738597100e-02     1     3     3    10
-1.9041848000e-03     1     3     3    11
 8.4971417000e-03     1     3     3    12
-3.6052861000e-02     1     3     3    13
-4.4731000000e-06     1     3     4     1
-9.9310000000e-07     1     3     4     2
 4.0010132300e-02     1     3     4     4
 1.4500000000e-08     1     3     4     5
 8.0593000000e-06     1     3     4     6
 7.1475000000e-06     1     3     4     7
 4.1206359000e-03     1     3     4     8
-6.3542717000e-03     1     3     4     9
 1.1126000000e-05     1     3     4    10
 1.1901743200e-02     1     3     4    11
 3.1533060400e-02     1     3     4    12
 6.8721166000e-03     1     3     4    13
 1.0756600000e-05     1     3     5     1
 4.9638000000e-06     1     3     5     2
 2.7800000000e-08     1     3     5     4
 4.0008860200e-02     1     3     5     5
-1.4091500000e-05     1     3     5     6
-9.3169100000e-05     1     3     5     7
-6.3571873000e-03     1     3     5     8
-4.1257183000e-03     1     3     5     9
-3.1576400000e-05     1     3     5    10
-3.2210271200e-02     1     3     5    11
 1.1239563800e-02     1     3     5    12
 4.3063728000e-03     1     3     5    13
 2.3408856000e-03     1     3     6     1
-1.1955912000e-03     1     3     6     2
 6.7808000000e-06     1     3     6     4
-1.0732500000e-05     1     3     6     5
 3.7079691700e-02     1     3     6     6
 1.4858081700e-02     1     3     6     7
-2.2816380000e-04     1     3     6     8
-7.9761400000e-05     1     3     6     9
-2.2722796800e-02     1     3     6    10
-4.9503800000e-05     1     3     6    11
 5.9947220000e-04     1     3     6    12
-2.5642837000e-03     1     3     6    13
-6.1567190100e-02     1     3     7     1
 2.8085884000e-02     1     3     7     2
 3.5911300000e-05     1     3     7     4
-1.1162340000e-04     1     3     7     5
-1.0352575900e-02     1     3     7     6
 4.0873603300e-02     1     3     7     7
 1.4798600000e-05     1     3     7     8
-7.1314000000e-06     1     3     7     9
 2.2392650700e-02     1     3     7    10
-1.6529150000e-04     1     3     7    11
 1.6584440000e-03     1     3     7    12
-7.4347229000e-03     1     3     7    13
 1.0264672000e-03     1     3     8     1
-4.6514730000e-04     1     3     8     2
 2.3659444000e-03     1     3     8     4
-3.6489643000e-03     1     3     8     5
 1.7867260000e-04     1     3     8     6
-6.5328000000e-06     1     3     8     7
 4.0540324900e-02     1     3     8     8
-6.4750000000e-07     1     3     8     9
-3.6786420000e-04     1     3     8    10
 1.0777927900e-02     1     3     8    11
 2.4615062000e-03     1     3     8    12
 1.5812320000e-04     1     3     8    13
 3.6295750000e-04     1     3     9     1
-1.6291950000e-04     1     3     9     2
-3.6480457000e-03     1     3     9     4
-2.3670842000e-03     1     3     9     5
 6.5255900000e-05     1     3     9     6
-3.6621000000e-06     1     3     9     7
-1.1392000000e-06     1     3     9     8
 4.0546298100e-02     1     3     9     9
-1.2985090000e-04     1     3     9    10
 2.4239209000e-03     1     3     9    11
-1.0498970600e-02     1     3     9    12
-2.6467560000e-03     1     3     9    13
 1.9186668700e-02     1     3    10     1
-1.5290486300e-02     1     3    10     2
 5.3169000000e-06     1     3    10     4
-1.0698400000e-05     1     3    10     5
-5.1555716000e-03     1     3    10     6
 5.6580785000e-03     1     3    10     7
-9.1548100000e-05     1     3    10     8
-3.0599200000e-05     1     3    10     9
 4.3751970900e-02     1     3    10    10
 7.5864200000e-05     1     3    10    11
-3.2100670000e-04     1     3    10    12
 1.4948494000e-03     1     3    10    13
 2.1665772000e-03     1     3    11     1
-5.2547830000e-04     1     3    11     2
 5.0602270000e-04     1     3    11     4
-1.3753173000e-03     1     3    11     5
-6.0934100000e-05     1     3    11     6
 5.6420500000e-05     1     3    11     7
 2.1729970000e-04     1     3    11     8
 4.4217500000e-05     1     3    11     9
-1.8299230000e-04     1     3    11    10
 3.6628310900e-02     1     3    11    11
 7.6000000000e-09     1     3    11    12
-9.9219000000e-06     1     3    11    13
-9.0836449000e-03     1     3    12     1
 2.1625518000e-03     1     3    12     2
 1.3465502000e-03     1     3    12     4
 4.7713710000e-04     1     3    12     5
 2.7465340000e-04     1     3    12     6
-2.5503180000e-04     1     3    12     7
 5.7602800000e-05     1     3    12     8
-2.2139050000e-04     1     3    12     9
 7.7498560000e-04     1     3    12    10
 8.4692000000e-06     1     3    12    11
 3.6651698300e-02     1     3    12    12
 1.1087670000e-04     1     3    12    13
 3.8373797700e-02     1     3    13     1
-9.1846106000e-03     1     3    13     2
 2.8933800000e-04     1     3    13     4
 1.8493570000e-04     1     3    13     5
-1.2065971000e-03     1     3    13     6
 8.5989920000e-04     1     3    13     7
-1.3866300000e-05     1     3    13     8
-1.1526970000e-04     1     3    13     9
-3.1754004000e-03     1     3    13    10
-3.7418700000e-05     1     3    13    11
 1.0290780000e-04     1     3    13    12
 3.6985673600e-02     1     3    13    13
-9.6579400000e-05     1     4     2     1
 4.3765800000e-05     1     4     2     2
-8.1724000000e-06     1     4     2     3
-4.2000000000e-08     1     4     2     5
 2.9803000000e-06     1     4     2     6
-8.0837600000e-05     1     4     2     7
-9.3041358000e-03     1     4     2     8
 1.4344751700e-02     1     4     2     9
-2.7253000000e-06     1     4     2    10
-7.1706800000e-04     1     4     2    11
-1.8974338000e-03     1     4     2    12
-4.1264910000e-04     1     4     2    13
-4.4731000000e-06     1     4     3     1
-9.1655000000e-06     1     4     3     2
-8.3546800000e-05     1     4     3     3
-1.3300000000e-08     1     4     3     5
 1.2785000000e-06     1     4     3     6
-2.8763800000e-05     1     4     3     7
 1.7546915000e-03     1     4     3     8
-2.7062260000e-03     1     4     3     9
 5.8091000000e-06     1     4     3    10
 1.1395720500e-02     1     4     3    11
 3.0186510200e-02     1     4     3    12
 6.5827786000e-03     1     4     3    13
-2.8924294400e-01     1     4     4     1
 8.7808657300e-02     1     4     4     2
-4.0010132300e-02     1     4     4     3
-1.9062920000e-04     1     4     4     5
-3.1939083300e-02     1     4     4     6
 9.8581561000e-03     1     4     4     7
-2.1893750000e-04     1     4     4     8
-8.6812000000e-06     1     4     4     9
 8.9621366000e-03     1     4     4    10
 1.5071541000e-03     1     4     4    11
-4.3017312000e-03     1     4     4    12
 1.8118667700e-02     1     4     4    13
 9.6000000000e-09     1     4     5     1
-1.1700000000e-08     1     4     5     2
-2.7800000000e-08     1     4     5     3
-8.4385900000e-05     1     4     5     5
 6.6400000000e-08     1     4     5     6
 1.3654000000e-06     1     4     5     7
 8.2259900000e-05     1     4     5     8
-2.5461100000e-05     1     4     5     9
-7.4761000000e-06     1     4     5    10
 5.7846440000e-04     1     4     5    11
 6.5594170000e-04     1     4     5    12
-1.3922410000e-03     1     4     5    13
-2.5470600000e-05     1     4     6     1
 3.9753800000e-05     1     4     6     2
-6.7808000000e-06     1     4     6     3
 2.8500000000e-08     1     4     6     5
-8.3283300000e-05     1     4     6     6
 1.1650970000e-04     1     4     6     7
 1.1541665200e-02     1     4     6     8
-1.7799342200e-02     1     4     6     9
 4.5961800000e-05     1     4     6    10
 1.3946200000e-05     1     4     6    11
 4.8783000000e-06     1     4     6    12
 2.9442200000e-05     1     4     6    13
-2.9243900000e-04     1     4     7     1
 1.6139700000e-04     1     4     7     2
-3.5911300000e-05     1     4     7     3
 1.6530000000e-07     1     4     7     5
-3.5841100000e-05     1     4     7     6
-6.6286600000e-05     1     4     7     7
 1.3926170000e-04     1     4     7     8
-2.1445370000e-04     1     4     7     9
 9.8556900000e-05     1     4     7    10
 2.5862399000e-03     1     4     7    11
 6.8555977000e-03     1     4     7    12
 1.6277172000e-03     1     4     7    13
-3.4936877100e-02     1     4     8     1
 1.7711518600e-02     1     4     8     2
-2.3659444000e-03     1     4     8     3
-3.9489000000e-06     1     4     8     5
-4.9670525000e-03     1     4     8     6
 5.2430530000e-04     1     4     8     7
-6.1827100000e-05     1     4     8     8
-1.4143000000e-06     1     4     8     9
 1.1902333300e-02     1     4     8    10
 1.8848350000e-04     1     4     8    11
-1.4254013000e-03     1     4     8    12
 5.3395509000e-03     1     4     8    13
 5.3869299700e-02     1     4     9     1
-2.7311895200e-02     1     4     9     2
 3.6480457000e-03     1     4     9     3
 3.5652600000e-05     1     4     9     5
 7.6582748000e-03     1     4     9     6
-8.0803180000e-04     1     4     9     7
-6.3786000000e-06     1     4     9     8
-5.9947900000e-05     1     4     9     9
-1.8347959400e-02     1     4     9    10
-6.4135230000e-04     1     4     9    11
 1.6893155000e-03     1     4     9    12
-7.6379910000e-03     1     4     9    13
-8.6822000000e-05     1     4    10     1
 5.6738500000e-05     1     4    10     2
-5.3169000000e-06     1     4    10     3
 3.7000000000e-08     1     4    10     5
 8.5987000000e-06     1     4    10     6
 3.1462100000e-05     1     4    10     7
 4.0773395000e-03     1     4    10     8
-6.2870090000e-03     1     4    10     9
-1.0296220000e-04     1     4    10    10
 4.9089150000e-04     1     4    10    11
 1.3033533000e-03     1     4    10    12
 2.5733780000e-04     1     4    10    13
-1.1085000800e-02     1     4    11     1
 2.1185453000e-03     1     4    11     2
-5.0602270000e-04     1     4    11     3
-3.5100000000e-07     1     4    11     5
 1.1782540000e-04     1     4    11     6
-7.7202240000e-04     1     4    11     7
 7.6655900000e-05     1     4    11     8
-2.5881700000e-05     1     4    11     9
 1.5303046000e-03     1     4    11    10
 1.0985700000e-05     1     4    11    11
-7.6329880000e-04     1     4    11    12
 2.2113133000e-03     1     4    11    13
-2.9342951800e-02     1     4    12     1
 5.5971071000e-03     1     4    12     2
-1.3465502000e-03     1     4    12     3
-2.9551000000e-06     1     4    12     5
 3.0818980000e-04     1     4    12     6
-2.0399044000e-03     1     4    12     7
-1.1574120000e-04     1     4    12     8
 3.4113390000e-04     1     4    12     9
 4.0456498000e-03     1     4    12    10
 6.8048330000e-04     1     4    12    11
-6.8821810000e-04     1     4    12    12
 5.8938185000e-03     1     4    12    13
-6.3515155000e-03     1     4    13     1
 1.2234351000e-03     1     4    13     2
-2.8933800000e-04     1     4    13     3
-6.4890000000e-07     1     4    13     5
 6.6952600000e-05     1     4    13     6
-3.7413870000e-04     1     4    13     7
 8.0387380000e-04     1     4    13     8
-1.4226403000e-03     1     4    13     9
 8.5718450000e-04     1     4    13    10
-1.0826556000e-03     1     4    13    11
-2.9134489000e-03     1     4    13    12
 4.9495770000e-04     1     4    13    13
 1.6947850000e-04     1     5     2     1
-4.5096800000e-05     1     5     2     2
 1.3038700000e-05     1     5     2     3
 4.2000000000e-08     1     5     2     4
-1.1378900000e-05     1     5     2     6
 3.1758250000e-04     1     5     2     7
 1.4340827800e-02     1     5     2     8
 9.3036961000e-03     1     5     2     9
 1.7265300000e-05     1     5     2    10
 1.9364780000e-03     1     5     2    11
-6.7518680000e-04     1     5     2    12
-2.6035860000e-04     1     5     2    13
 1.0756600000e-05     1     5     3     1
 1.8002500000e-05     1     5     3     2
 1.8855100000e-04     1     5     3     3
 1.3300000000e-08     1     5     3     4
-3.3590000000e-06     1     5     3     6
 1.8454300000e-05     1     5     3     7
-2.7082230000e-03     1     5     3     8
-1.7586341000e-03     1     5     3     9
-2.0878000000e-05     1     5     3    10
-3.0834953900e-02     1     5     3    11
 1.0762426700e-02     1     5     3    12
 4.1214371000e-03     1     5     3    13
 9.6000000000e-09     1     5     4     1
 3.0300000000e-08     1     5     4     2
-1.4500000000e-08     1     5     4     3
 1.9062920000e-04     1     5     4     4
 3.7900000000e-08     1     5     4     6
 1.2001000000e-06     1     5     4     7
 8.6208800000e-05     1     5     4     8
-6.1113700000e-05     1     5     4     9
-7.5131000000e-06     1     5     4    10
 5.7881540000e-04     1     5     4    11
 6.5889680000e-04     1     5     4    12
-1.3915921000e-03     1     5     4    13
-2.8922843410e-01     1     5     5     1
 8.7800942300e-02     1     5     5     2
-4.0008860200e-02     1     5     5     3
 8.4385900000e-05     1     5     5     4
-3.1935284700e-02     1     5     5     6
 9.8558894000e-03     1     5     5     7
-2.9816250000e-04     1     5     5     8
-1.4760890000e-04     1     5     5     9
 8.9500057000e-03     1     5     5    10
 6.0175750000e-04     1     5     5    11
-5.0707474000e-03     1     5     5    12
 2.1706857300e-02     1     5     5    13
 4.2493900000e-05     1     5     6     1
-6.5133800000e-05     1     5     6     2
 1.0732500000e-05     1     5     6     3
-2.8500000000e-08     1     5     6     4
 1.8449390000e-04     1     5     6     6
-4.2854820000e-04     1     5     6     7
-1.7785424600e-02     1     5     6     8
-1.1541722400e-02     1     5     6     9
-1.2211050000e-04     1     5     6    10
-1.2386200000e-05     1     5     6    11
 1.2651700000e-05     1     5     6    12
-8.4834900000e-05     1     5     6    13
 1.1789000000e-03     1     5     7     1
-6.2164410000e-04     1     5     7     2
 1.1162340000e-04     1     5     7     3
-1.6530000000e-07     1     5     7     4
 1.5567480000e-04     1     5     7     6
 1.5103140000e-04     1     5     7     7
-2.1592360000e-04     1     5     7     8
-1.3928350000e-04     1     5     7     9
-4.0088360000e-04     1     5     7    10
-7.0079655000e-03     1     5     7    11
 2.5016609000e-03     1     5     7    12
 7.7580560000e-04     1     5     7    13
 5.3868816400e-02     1     5     8     1
-2.7310730800e-02     1     5     8     2
 3.6489643000e-03     1     5     8     3
 3.9489000000e-06     1     5     8     4
 7.6631503000e-03     1     5     8     6
-8.0764180000e-04     1     5     8     7
 1.5728720000e-04     1     5     8     8
 1.4329800000e-05     1     5     8     9
-1.8343544100e-02     1     5     8    10
-1.4083760000e-04     1     5     8    11
 2.0517150000e-03     1     5     8    12
-8.8303093000e-03     1     5     8    13
 3.4946461800e-02     1     5     9     1
-1.7716701400e-02     1     5     9     2
 2.3670842000e-03     1     5     9     3
-3.5652600000e-05     1     5     9     4
 4.9688728000e-03     1     5     9     6
-5.2332500000e-04     1     5     9     7
 1.3042000000e-06     1     5     9     8
 1.7064320000e-04     1     5     9     9
-1.1897586600e-02     1     5     9    10
-2.9631360000e-04     1     5     9    11
 1.1225917000e-03     1     5     9    12
-5.3150192000e-03     1     5     9    13
 2.1365250000e-04     1     5    10     1
-1.3219410000e-04     1     5    10     2
 1.0698400000e-05     1     5    10     3
-3.7000000000e-08     1     5    10     4
-1.9939500000e-05     1     5    10     6
-1.3432860000e-04     1     5    10     7
-6.2868992000e-03     1     5    10     8
-4.0775805000e-03     1     5    10     9
 2.1425290000e-04     1     5    10    10
-1.3315203000e-03     1     5    10    11
 4.6139460000e-04     1     5    10    12
 1.9207970000e-04     1     5    10    13
 2.9978701300e-02     1     5    11     1
-5.7190595000e-03     1     5    11     2
 1.3753173000e-03     1     5    11     3
 3.5100000000e-07     1     5    11     4
-3.1484030000e-04     1     5    11     6
 2.0897332000e-03     1     5    11     7
-1.3509950000e-04     1     5    11     8
-2.7634600000e-05     1     5    11     9
-4.1302976000e-03     1     5    11    10
-7.7787000000e-06     1     5    11    11
 1.3211248000e-03     1     5    11    12
-6.2209503000e-03     1     5    11    13
-1.0451496200e-02     1     5    12     1
 1.9970590000e-03     1     5    12     2
-4.7713710000e-04     1     5    12     3
 2.9551000000e-06     1     5    12     4
 1.0758320000e-04     1     5    12     6
-7.1217090000e-04     1     5    12     7
 2.5826280000e-04     1     5    12     8
 1.9518200000e-04     1     5    12     9
 1.4341913000e-03     1     5    12    10
-6.3898040000e-04     1     5    12    11
-7.8197000000e-05     1     5    12    12
 2.1541411000e-03     1     5    12    13
-3.9917189000e-03     1     5    13     1
 7.3483850000e-04     1     5    13     2
-1.8493570000e-04     1     5    13     3
 6.4890000000e-07     1     5    13     4