&FCI NORB= 13,NELEC=  2,MS2=0,
 ORBSYM=1,1,1,1,1,1,1,1,1,1,1,1,1
 ISYM=1,
&END
 3.2911175950e-01     1     1     2     2
 4.4408000000e-06     1     1     2     3
 5.6749000000e-06     1     1     2     4
-6.7115654000e-03     1     1     2     5
 9.9845474400e-02     1     1     2     6
-5.1769900000e-05     1     1     2     7
-5.6175200000e-05     1     1     2     8
 2.4279335900e-02     1     1     2     9
-6.4325050000e-04     1     1     2    10
 3.3847700000e-05     1     1     2    11
 3.6844700000e-05     1     1     2    12
 1.2138500000e-05     1     1     2    13
 4.4408000000e-06     1     1     3     2
 3.6201726120e-01     1     1     3     3
 1.1000000000e-08     1     1     3     4
-1.4230900000e-05     1     1     3     5
 6.3630800000e-05     1     1     3     6
 7.5236610100e-02     1     1     3     7
 2.2258569000e-02     1     1     3     8
-1.5640800000e-05     1     1     3     9
-1.9991650000e-04     1     1     3    10
 1.2544010000e-04     1     1     3    11
-3.1228675400e-02     1     1     3    12
-1.8558353200e-02     1     1     3    13
 5.6749000000e-06     1     1     4     2
 1.1000000000e-08     1     1     4     3
 3.6201772520e-01     1     1     4     4
-1.7956500000e-05     1     1     4     5
 3.8484300000e-05     1     1     4     6
-2.2249005200e-02     1     1     4     7
 7.5226936100e-02     1     1     4     8
-2.3487800000e-05     1     1     4     9
-3.5380700000e-05     1     1     4    10
-3.1005810000e-04     1     1     4    11
 1.8581478800e-02     1     1     4    12
-3.1243792100e-02     1     1     4    13
-6.7115654000e-03     1     1     5     2
-1.4230900000e-05     1     1     5     3
-1.7956500000e-05     1     1     5     4
 3.8904485140e-01     1     1     5     5
-1.5383636400e-02     1     1     5     6
 4.1593700000e-05     1     1     5     7
 6.4964500000e-05     1     1     5     8
 8.2780723500e-02     1     1     5     9
-2.0002974000e-03     1     1     5    10
-6.9527700000e-05     1     1     5    11
 9.8470000000e-06     1     1     5    12
 9.7842600000e-05     1     1     5    13
 9.9845474400e-02     1     1     6     2
 6.3630800000e-05     1     1     6     3
 3.8484300000e-05     1     1     6     4
-1.5383636400e-02     1     1     6     5
 4.3327833590e-01     1     1     6     6
-4.2920000000e-06     1     1     6     7
-1.2979000000e-06     1     1     6     8
 3.7387473000e-03     1     1     6     9
-5.2700400000e-05     1     1     6    10
-3.6342500000e-05     1     1     6    11
-1.6422700000e-05     1     1     6    12
 2.4154700000e-05     1     1     6    13
-5.1769900000e-05     1     1     7     2
 7.5236610100e-02     1     1     7     3
-2.2249005200e-02     1     1     7     4
 4.1593700000e-05     1     1     7     5
-4.2920000000e-06     1     1     7     6
 4.3610119190e-01     1     1     7     7
 8.1240000000e-07     1     1     7     8
-2.8114000000e-06     1     1     7     9
-2.0608400000e-05     1     1     7    10
 1.5011100000e-05     1     1     7    11
-3.8993196000e-03     1     1     7    12
-9.8739140000e-04     1     1     7    13
-5.6175200000e-05     1     1     8     2
 2.2258569000e-02     1     1     8     3
 7.5226936100e-02     1     1     8     4
 6.4964500000e-05     1     1     8     5
-1.2979000000e-06     1     1     8     6
 8.1240000000e-07     1     1     8     7
 4.3609772880e-01     1     1     8     8
 3.0020000000e-06     1     1     8     9
-9.1363000000e-06     1     1     8    10
-2.5867700000e-05     1     1     8    11
 9.9999490000e-04     1     1     8    12
-3.9014566000e-03     1     1     8    13
 2.4279335900e-02     1     1     9     2
-1.5640800000e-05     1     1     9     3
-2.3487800000e-05     1     1     9     4
 8.2780723500e-02     1     1     9     5
 3.7387473000e-03     1     1     9     6
-2.8114000000e-06     1     1     9     7
 3.0020000000e-06     1     1     9     8
 4.4514561660e-01     1     1     9     9
-4.8543460000e-04     1     1     9    10
-2.5133100000e-05     1     1     9    11
-3.1176000000e-06     1     1     9    12
 3.4329800000e-05     1     1     9    13
-6.4325050000e-04     1     1    10     2
-1.9991650000e-04     1     1    10     3
-3.5380700000e-05     1     1    10     4
-2.0002974000e-03     1     1    10     5
-5.2700400000e-05     1     1    10     6
-2.0608400000e-05     1     1    10     7
-9.1363000000e-06     1     1    10     8
-4.8543460000e-04     1     1    10     9
 4.1093040520e-01     1     1    10    10
 2.4470000000e-07     1     1    10    11
 2.6024500000e-05     1     1    10    12
 2.2314000000e-05     1     1    10    13
 3.3847700000e-05     1     1    11     2
 1.2544010000e-04     1     1    11     3
-3.1005810000e-04     1     1    11     4
-6.9527700000e-05     1     1    11     5
-3.6342500000e-05     1     1    11     6
 1.5011100000e-05     1     1    11     7
-2.5867700000e-05     1     1    11     8
-2.5133100000e-05     1     1    11     9
 2.4470000000e-07     1     1    11    10
 4.1091256790e-01     1     1    11    11
-4.7172100000e-05     1     1    11    12
 3.4248500000e-05     1     1    11    13
 3.6844700000e-05     1     1    12     2
-3.1228675400e-02     1     1    12     3
 1.8581478800e-02     1     1    12     4
 9.8470000000e-06     1     1    12     5
-1.6422700000e-05     1     1    12     6
-3.8993196000e-03     1     1    12     7
 9.9999490000e-04     1     1    12     8
-3.1176000000e-06     1     1    12     9
 2.6024500000e-05     1     1    12    10
-4.7172100000e-05     1     1    12    11
 4.2270184540e-01     1     1    12    12
-1.6488000000e-06     1     1    12    13
 1.2138500000e-05     1     1    13     2
-1.8558353200e-02     1     1    13     3
-3.1243792100e-02     1     1    13     4
 9.7842600000e-05     1     1    13     5
 2.4154700000e-05     1     1    13     6
-9.8739140000e-04     1     1    13     7
-3.9014566000e-03     1     1    13     8
 3.4329800000e-05     1     1    13     9
 2.2314000000e-05     1     1    13    10
 3.4248500000e-05     1     1    13    11
-1.6488000000e-06     1     1    13    12
 4.2269319240e-01     1     1    13    13
-3.2911175950e-01     1     2     2     1
 1.1040200000e-05     1     2     2     3
 1.3664000000e-05     1     2     2     4
-1.3848506000e-02     1     2     2     5
 6.0716760900e-02     1     2     2     6
-3.0778500000e-05     1     2     2     7
-3.2314400000e-05     1     2     2     8
 1.2120987900e-02     1     2     2     9
-3.3125980000e-04     1     2     2    10
 3.1219300000e-05     1     2     2    11
 2.7510200000e-05     1     2     2    12
-2.7351000000e-06     1     2     2    13
-4.4408000000e-06     1     2     3     1
 1.0055277110e-01     1     2     3     3
 1.2000000000e-09     1     2     3     4
-1.2293000000e-06     1     2     3     5
 3.9964800000e-05     1     2     3     6
 5.2538082200e-02     1     2     3     7
 1.5541437300e-02     1     2     3     8
-1.5390700000e-05     1     2     3     9
-1.0003990000e-04     1     2     3    10
 5.8689000000e-05     1     2     3    11
-1.5512988100e-02     1     2     3    12
-9.2193151000e-03     1     2     3    13
-5.6749000000e-06     1     2     4     1
-5.0000000000e-10     1     2     4     3
 1.0055294000e-01     1     2     4     4
-1.5543000000e-06     1     2     4     5
 2.1512400000e-05     1     2     4     6
-1.5536841400e-02     1     2     4     7
 5.2533244500e-02     1     2     4     8
-1.7006600000e-05     1     2     4     9
-1.6998000000e-05     1     2     4    10
-1.5213020000e-04     1     2     4    11
 9.2365563000e-03     1     2     4    12
-1.5523569000e-02     1     2     4    13
 6.7115654000e-03     1     2     5     1
-1.7168000000e-06     1     2     5     3
-2.3075000000e-06     1     2     5     4
 1.0618354430e-01     1     2     5     5
-5.3539985000e-03     1     2     5     6
 2.4841600000e-05     1     2     5     7
 4.4654700000e-05     1     2     5     8
 5.3474099400e-02     1     2     5     9
-1.2490479000e-03     1     2     5    10
-6.8761500000e-05     1     2     5    11
-7.4155000000e-06     1     2     5    12
 8.3988800000e-05     1     2     5    13
-9.9845474400e-02     1     2     6     1
 1.0341300000e-05     1     2     6     3
 5.8111000000e-06     1     2     6     4
-1.3719006000e-03     1     2     6     5
 1.1446854780e-01     1     2     6     6
-3.1894000000e-06     1     2     6     7
-1.7668000000e-06     1     2     6     8
 1.5026347000e-03     1     2     6     9
-3.0814500000e-05     1     2     6    10
-1.3768900000e-05     1     2     6    11
-5.9105000000e-06     1     2     6    12
 8.5960000000e-06     1     2     6    13
 5.1769900000e-05     1     2     7     1
 1.2791509000e-02     1     2     7     3
-3.7807682000e-03     1     2     7     4
 5.6166000000e-06     1     2     7     5
-3.9468000000e-06     1     2     7     6
 1.1444774600e-01     1     2     7     7
 1.7759000000e-06     1     2     7     8
-4.7090000000e-07     1     2     7     9
-1.8489700000e-05     1     2     7    10
 1.6166800000e-05     1     2     7    11
-3.3190624000e-03     1     2     7    12
-8.4020910000e-04     1     2     7    13
 5.6175200000e-05     1     2     8     1
 3.7817869000e-03     1     2     8     3
 1.2790438700e-02     1     2     8     4
 9.0908000000e-06     1     2     8     5
-2.9012000000e-06     1     2     8     6
 7.2900000000e-08     1     2     8     7
 1.1444526700e-01     1     2     8     8
 2.8416000000e-06     1     2     8     9
-8.3872000000e-06     1     2     8    10
-2.4417800000e-05     1     2     8    11
 8.4838530000e-04     1     2     8    12
-3.3209028000e-03     1     2     8    13
-2.4279335900e-02     1     2     9     1
-6.3316000000e-06     1     2     9     3
-7.0465000000e-06     1     2     9     4
 1.4983695300e-02     1     2     9     5
 2.1937642000e-03     1     2     9     6
-9.6330000000e-07     1     2     9     7
 2.3650000000e-06     1     2     9     8
 1.2284287830e-01     1     2     9     9
-4.5058240000e-04     1     2     9    10
-2.2657700000e-05     1     2     9    11
-2.5207000000e-06     1     2     9    12
 3.2272600000e-05     1     2     9    13
 6.4325050000e-04     1     2    10     1
-2.1417200000e-05     1     2    10     3
-3.5938000000e-06     1     2    10     4
-3.4988780000e-04     1     2    10     5
-4.1187900000e-05     1     2    10     6
-1.8244000000e-05     1     2    10     7
-8.4482000000e-06     1     2    10     8
-4.5257190000e-04     1     2    10     9
 9.6359118900e-02     1     2    10    10
 3.0830000000e-07     1     2    10    11
 2.1963600000e-05     1     2    10    12
 1.8830500000e-05     1     2    10    13
-3.3847700000e-05     1     2    11     1
 1.2099900000e-05     1     2    11     3
-3.2291300000e-05     1     2    11     4
-1.7617100000e-05     1     2    11     5
-1.9587800000e-05     1     2    11     6
 1.5846000000e-05     1     2    11     7
-2.4063700000e-05     1     2    11     8
-1.9605400000e-05     1     2    11     9
 2.2590000000e-07     1     2    11    10
 9.6345076900e-02     1     2    11    11
-3.9900300000e-05     1     2    11    12
 2.9139900000e-05     1     2    11    13
-3.6844700000e-05     1     2    12     1
-3.3371340000e-03     1     2    12     3
 1.9867203000e-03     1     2    12     4
-1.1590000000e-06     1     2    12     5
-9.3376000000e-06     1     2    12     6
-3.3286095000e-03     1     2    12     7
 8.5043080000e-04     1     2    12     8
-7.9710000000e-07     1     2    12     9
 2.2069100000e-05     1     2    12    10
-4.0272900000e-05     1     2    12    11
 1.0458945670e-01     1     2    12    12
-1.1517000000e-06     1     2    12    13
-1.2138500000e-05     1     2    13     1
-1.9826522000e-03     1     2    13     3
-3.3396043000e-03     1     2    13     4
 2.4103200000e-05     1     2    13     5
 1.3446800000e-05     1     2    13     6
-8.4278910000e-04     1     2    13     7
-3.3303497000e-03     1     2    13     8
 2.9842800000e-05     1     2    13     9
 1.8997500000e-05     1     2    13    10
 2.9330200000e-05     1     2    13    11
-1.6292000000e-06     1     2    13    12
 1.0458513260e-01     1     2    13    13
-4.4408000000e-06     1     3     2     1
-1.1040200000e-05     1     3     2     2
 1.7000000000e-09     1     3     2     4
 4.8750000000e-07     1     3     2     5
 2.9623500000e-05     1     3     2     6
 3.9746573200e-02     1     3     2     7
 1.1759650400e-02     1     3     2     8
-9.0591000000e-06     1     3     2     9
-7.8622700000e-05     1     3     2    10
 4.6589100000e-05     1     3     2    11
-1.2175854100e-02     1     3     2    12
-7.2366629000e-03     1     3     2    13
-3.6201726120e-01     1     3     3     1
-1.0055277110e-01     1     3     3     2
 1.2348400000e-05     1     3     3     4
-1.2468737100e-02     1     3     3     5
-1.7969484900e-02     1     3     3     6
 3.3238200000e-05     1     3     3     7
 2.2938900000e-05     1     3     3     8
-1.1182375300e-02     1     3     3     9
-1.1370091900e-02     1     3     3    10
 3.8488297000e-02     1     3     3    11
 3.5302860000e-04     1     3     3    12
-1.0860350000e-04     1     3     3    13
-1.1000000000e-08     1     3     4     1
 5.0000000000e-10     1     3     4     2
-1.0080400000e-05     1     3     4     4
 1.0000000000e-09     1     3     4     5
 7.0800000000e-08     1     3     4     6
 4.5531000000e-06     1     3     4     7
 1.4766800000e-05     1     3     4     8
-9.7918260000e-04     1     3     4     9
-3.9136545800e-02     1     3     4    10
-1.1868263800e-02     1     3     4    11
 8.5494600000e-05     1     3     4    12
 2.5480820000e-04     1     3     4    13
 1.4230900000e-05     1     3     5     1
 1.7168000000e-06     1     3     5     2
-8.0000000000e-10     1     3     5     4
-1.2362800000e-05     1     3     5     5
 3.9378000000e-06     1     3     5     6
-1.3473275500e-02     1     3     5     7
-3.9758351000e-03     1     3     5     8
 1.6643200000e-05     1     3     5     9
-2.6367920000e-04     1     3     5    10
 1.7614910000e-04     1     3     5    11
-3.5390332500e-02     1     3     5    12
-2.1026546500e-02     1     3     5    13
-6.3630800000e-05     1     3     6     1
-1.0341300000e-05     1     3     6     2
-1.4000000000e-09     1     3     6     4
-3.0100000000e-08     1     3     6     5
-2.0194500000e-05     1     3     6     6
 6.8372181000e-03     1     3     6     7
 2.0241720000e-03     1     3     6     8
-1.0633200000e-05     1     3     6     9
-1.9795300000e-05     1     3     6    10
 1.3244400000e-05     1     3     6    11
-2.6277530000e-03     1     3     6    12
-1.5605084000e-03     1     3     6    13
-7.5236610100e-02     1     3     7     1
-1.2791509000e-02     1     3     7     2
 1.7280000000e-07     1     3     7     4
 5.4702650000e-04     1     3     7     5
-1.7845984600e-02     1     3     7     6
-7.5305000000e-06     1     3     7     7
 8.1029000000e-06     1     3     7     8
 1.5787725000e-03     1     3     7     9
-2.7380070000e-04     1     3     7    10
 7.1238003000e-03     1     3     7    11
 5.1449700000e-05     1     3     7    12
-1.1711000000e-05     1     3     7    13
-2.2258569000e-02     1     3     8     1
-3.7817869000e-03     1     3     8     2
-1.0600000000e-07     1     3     8     4
 1.6131290000e-04     1     3     8     5
-5.2778327000e-03     1     3     8     6
-2.5886000000e-06     1     3     8     7
-1.1849900000e-05     1     3     8     8
 2.2623110000e-04     1     3     8     9
-6.7165101000e-03     1     3     8    10
 1.5465650000e-04     1     3     8    11
 2.8891200000e-05     1     3     8    12
 4.8153600000e-05     1     3     8    13
 1.5640800000e-05     1     3     9     1
 6.3316000000e-06     1     3     9     2
 3.3000000000e-09     1     3     9     4
 2.0583000000e-06     1     3     9     5
 5.1528000000e-06     1     3     9     6
 4.4935380000e-03     1     3     9     7
 1.4829343000e-03     1     3     9     8
-1.4190300000e-05     1     3     9     9
-1.5550000000e-05     1     3     9    10
 8.7153000000e-06     1     3     9    11
-3.1281159000e-03     1     3     9    12
-1.9167672000e-03     1     3     9    13
 1.9991650000e-04     1     3    10     1
 2.1417200000e-05     1     3    10     2
-1.8430000000e-07     1     3    10     4
-5.4789000000e-06     1     3    10     5
 2.1963500000e-05     1     3    10     6
-4.3678260000e-04     1     3    10     7
 8.2310136000e-03     1     3    10     8
 7.5477500000e-05     1     3    10     9
-1.5050500000e-05     1     3    10    10
-3.2442100000e-05     1     3    10    11
 9.5016630000e-04     1     3    10    12
-2.6549653000e-03     1     3    10    13
-1.2544010000e-04     1     3    11     1
-1.2099900000e-05     1     3    11     2
-5.8299999998e-08     1     3    11     4
 3.7871000000e-06     1     3    11     5
-1.2801300000e-05     1     3    11     6
-7.3718135000e-03     1     3    11     7
 4.3151040000e-04     1     3    11     8
-5.1208300000e-05     1     3    11     9
 2.6808700000e-05     1     3    11    10
-1.5098300000e-05     1     3    11    11
 2.3219070000e-03     1     3    11    12
 3.9657660000e-04     1     3    11    13
 3.1228675400e-02     1     3    12     1
 3.3371340000e-03     1     3    12     2
 2.2146000000e-06     1     3    12     4
-1.0826956000e-03     1     3    12     5
 2.5880779000e-03     1     3    12     6
-5.9706500000e-05     1     3    12     7
-3.1568100000e-05     1     3    12     8
 1.0321862000e-02     1     3    12     9
-6.2203190000e-04     1     3    12    10
-2.2832536000e-03     1     3    12    11
-3.2245500000e-05     1     3    12    12
 4.5023700000e-05     1     3    12    13
 1.8558353200e-02     1     3    13     1
 1.9826522000e-03     1     3    13     2
-2.2290000000e-07     1     3    13     4
-6.4583840000e-04     1     3    13     5
 1.5394204000e-03     1     3    13     6
 4.8765400000e-05     1     3    13     7
-3.2939000000e-05     1     3    13     8
 6.2167982000e-03     1     3    13     9
 1.9125716000e-03     1     3    13    10
-6.6816400000e-04     1     3    13    11
-2.6394500000e-05     1     3    13    12
 5.6519000000e-06     1     3    13    13
-5.6749000000e-06     1     4     2     1
-1.3664000000e-05     1     4     2     2
-1.7000000000e-09     1     4     2     3
 7.5320000000e-07     1     4     2     5
 1.5701300000e-05     1     4     2     6
-1.1756073200e-02     1     4     2     7
 3.9742805800e-02     1     4     2     8
-9.9601000000e-06     1     4     2     9
-1.3404200000e-05     1     4     2    10
-1.1983890000e-04     1     4     2    11
 7.2498360000e-03     1     4     2    12
-1.2183964700e-02     1     4     2    13
-1.1000000000e-08     1     4     3     1
-1.2000000000e-09     1     4     3     2
-1.2348400000e-05     1     4     3     3
 1.8000000000e-09     1     4     3     5
 7.2200000000e-08     1     4     3     6
 4.3803000000e-06     1     4     3     7
 1.4872800000e-05     1     4     3     8
-9.7918590000e-04     1     4     3     9
-3.9136361500e-02     1     4     3    10
-1.1868205500e-02     1     4     3    11
 8.3280000000e-05     1     4     3    12
 2.5503110000e-04     1     4     3    13
-3.6201772520e-01     1     4     4     1
-1.0055294000e-01     1     4     4     2
 1.0080400000e-05     1     4     4     3
-1.2468702500e-02     1     4     4     5
-1.7969881300e-02     1     4     4     6
-5.0465000000e-06     1     4     4     7
 3.9971600000e-05     1     4     4     8
-1.0601601400e-02     1     4     4     9
 1.1995670000e-02     1     4     4    10
-3.8606991400e-02     1     4     4    11
-4.2307100000e-04     1     4     4    12
 2.5843380000e-04     1     4     4    13
 1.7956500000e-05     1     4     5     1
 2.3075000000e-06     1     4     5     2
 8.0000000000e-10     1     4     5     3
-1.5028700000e-05     1     4     5     5
 1.2136800000e-05     1     4     5     6
 3.9864370000e-03     1     4     5     7
-1.3483907900e-02     1     4     5     8
-7.5998000000e-06     1     4     5     9
-6.3700900000e-05     1     4     5    10
-3.9676210000e-04     1     4     5    11
 2.1020460900e-02     1     4     5    12
-3.5386709300e-02     1     4     5    13
-3.8484300000e-05     1     4     6     1
-5.8111000000e-06     1     4     6     2
 1.4000000000e-09     1     4     6     3
-4.4530000000e-07     1     4     6     5
-1.7213800000e-05     1     4     6     6
-2.0238498000e-03     1     4     6     7
 6.8362707000e-03     1     4     6     8
-1.2405100000e-05     1     4     6     9
-6.5033000000e-06     1     4     6    10
-2.7712000000e-05     1     4     6    11
 1.5651112000e-03     1     4     6    12
-2.6298955000e-03     1     4     6    13
 2.2249005200e-02     1     4     7     1
 3.7807682000e-03     1     4     7     2
-1.7280000000e-07     1     4     7     3
-1.6103420000e-04     1     4     7     5
 5.2767701000e-03     1     4     7     6
-1.6133400000e-05     1     4     7     7
-5.3072000000e-06     1     4     7     8
-7.0645070000e-04     1     4     7     9
-6.7090712000e-03     1     4     7    10
 1.7803370000e-04     1     4     7    11
 4.9724600000e-05     1     4     7    12
 2.2603900000e-05     1     4     7    13
-7.5226936100e-02     1     4     8     1
-1.2790438700e-02     1     4     8     2
 1.0600000000e-07     1     4     8     3
 5.4676450000e-04     1     4     8     5
-1.7845312600e-02     1     4     8     6
 7.5610000000e-06     1     4     8     7
-1.0873900000e-05     1     4     8     8
 1.5956722000e-03     1     4     8     9
 2.4554910000e-04     1     4     8    10
-7.2056900000e-03     1     4     8    11
-9.6090400000e-05     1     4     8    12
 8.9301600000e-05     1     4     8    13
 2.3487800000e-05     1     4     9     1
 7.0465000000e-06     1     4     9     2
-3.3000000000e-09     1     4     9     3
 1.6719000000e-06     1     4     9     5
 2.6895000000e-06     1     4     9     6
-1.1775006000e-03     1     4     9     7
 4.5114067000e-03     1     4     9     8
-1.2264800000e-05     1     4     9     9
-3.6453000000e-06     1     4     9    10
-2.2500700000e-05     1     4     9    11
 1.8222149000e-03     1     4     9    12
-3.1600572000e-03     1     4     9    13
 3.5380700000e-05     1     4    10     1
 3.5938000000e-06     1     4    10     2
 1.8430000000e-07     1     4    10     3
-1.0661000000e-06     1     4    10     5
 7.3247000000e-06     1     4    10     6
 8.2948713000e-03     1     4    10     7
 2.2309240000e-04     1     4    10     8
 1.6482500000e-05     1     4    10     9
-2.1118800000e-05     1     4    10    10
 2.0135100000e-05     1     4    10    11
-2.7820354000e-03     1     4    10    12
-7.3177750000e-04     1     4    10    13
 3.1005810000e-04     1     4    11     1
 3.2291300000e-05     1     4    11     2
 5.8299999998e-08     1     4    11     3
-8.8152000000e-06     1     4    11     5
 3.0400500000e-05     1     4    11     6
 4.3959030000e-04     1     4    11     7
 7.3463419000e-03     1     4    11     8
 1.1691670000e-04     1     4    11     9
-2.1322100000e-05     1     4    11    10
-1.6033800000e-05     1     4    11    11
 4.1956010000e-04     1     4    11    12
-2.3546695000e-03     1     4    11    13
-1.8581478800e-02     1     4    12     1
-1.9867203000e-03     1     4    12     2
-2.2146000000e-06     1     4    12     3
 6.4597100000e-04     1     4    12     5
-1.5435326000e-03     1     4    12     6
-2.8649100000e-05     1     4    12     7
 4.5569600000e-05     1     4    12     8
-6.0656664000e-03     1     4    12     9
 2.1689055000e-03     1     4    12    10
-6.4774220000e-04     1     4    12    11
-1.0188700000e-05     1     4    12    12
-4.2810500000e-05     1     4    12    13
 3.1243792100e-02     1     4    13     1
 3.3396043000e-03     1     4    13     2
 2.2290000000e-07     1     4    13     3
-1.0825624000e-03     1     4    13     5
 2.5911095000e-03     1     4    13     6
-3.8183200000e-05     1     4    13     7
-3.1648100000e-05     1     4    13     8
 1.0354817400e-02     1     4    13     9
 1.8804420000e-04     1     4    13    10
 2.2456490000e-03     1     4    13    11
 1.7782900000e-05     1     4    13    12
 8.6531000000e-06     1     4    13    13
 6.7115654000e-03     1     5     2     1
 1.3848506000e-02     1     5     2     2
-4.8750000000e-07     1     5     2     3
-7.5320000000e-07     1     5     2     4
-3.9820979000e-03     1     5     2     6
 1.9225000000e-05     1     5     2     7
 3.5563900000e-05     1     5     2     8
 3.8490404100e-02     1     5     2     9
-8.9916010000e-04     1     5     2    10
-5.1144400000e-05     1     5     2    11
-6.2565000000e-06     1     5     2    12
 5.9885600000e-05     1     5     2    13
 1.4230900000e-05     1     5     3     1
 1.2293000000e-06     1     5     3     2
 1.2468737100e-02     1     5     3     3
-1.8000000000e-09     1     5     3     4
 3.9679000000e-06     1     5     3     6
-1.4020302000e-02     1     5     3     7
-4.1371480000e-03     1     5     3     8
 1.4584900000e-05     1     5     3     9
-2.5820030000e-04     1     5     3    10
 1.7236200000e-04     1     5     3    11
-3.4307636900e-02     1     5     3    12
-2.0380708100e-02     1     5     3    13
 1.7956500000e-05     1     5     4     1
 1.5543000000e-06     1     5     4     2
-1.0000000000e-09     1     5     4     3
 1.2468702500e-02     1     5     4     4
 1.2582100000e-05     1     5     4     6
 4.1474712000e-03     1     5     4     7
-1.4030672400e-02     1     5     4     8
-9.2717000000e-06     1     5     4     9
-6.2634800000e-05     1     5     4    10
-3.8794690000e-04     1     5     4    11
 2.0374489900e-02     1     5     4    12
-3.4304146900e-02     1     5     4    13
-3.8904485140e-01     1     5     5     1
-1.0618354430e-01     1     5     5     2
 1.2362800000e-05     1     5     5     3
 1.5028700000e-05     1     5     5     4
-3.5345358000e-02     1     5     5     6
 1.3472200000e-05     1     5     5     7
-2.6989800000e-05     1     5     5     8
 1.7289463500e-02     1     5     5     9
-5.6833800000e-04     1     5     5    10
 1.5939720000e-04     1     5     5    11
 9.0703300000e-05     1     5     5    12
-1.8582340000e-04     1     5     5    13
 1.5383636400e-02     1     5     6     1
 1.3719006000e-03     1     5     6     2
 3.0100000000e-08     1     5     6     3
 4.4530000000e-07     1     5     6     4
 1.1837661300e-02     1     5     6     6
 3.3538000000e-06     1     5     6     7
 2.4930000000e-06     1     5     6     8
 2.0032098200e-02     1     5     6     9
-3.9644600000e-04     1     5     6    10
-2.4820700000e-05     1     5     6    11
-9.2486000000e-06     1     5     6    12
 2.7770400000e-05     1     5     6    13
-4.1593700000e-05     1     5     7     1
-5.6166000000e-06     1     5     7     2
-5.4702650000e-04     1     5     7     3
 1.6103420000e-04     1     5     7     4
-5.5667000000e-06     1     5     7     6
 1.4796621000e-02     1     5     7     7
 1.9141000000e-06     1     5     7     8
-9.9170000000e-07     1     5     7     9
-5.2804200000e-05     1     5     7    10
 6.4018000000e-05     1     5     7    11
-1.0648877400e-02     1     5     7    12
-2.7068685000e-03     1     5     7    13
-6.4964500000e-05     1     5     8     1
-9.0908000000e-06     1     5     8     2
-1.6131290000e-04     1     5     8     3
-5.4676450000e-04     1     5     8     4
-1.3331700000e-05     1     5     8     6
-1.9741000000e-06     1     5     8     7
 1.4796997700e-02     1     5     8     8
 4.9169000000e-06     1     5     8     9
-2.9926600000e-05     1     5     8    10
-7.5475200000e-05     1     5     8    11
 2.7066534000e-03     1     5     8    12
-1.0647042400e-02     1     5     8    13
-8.2780723500e-02     1     5     9     1
-1.4983695300e-02     1     5     9     2
-2.0583000000e-06     1     5     9     3
-1.6719000000e-06     1     5     9     4
-8.5738628000e-03     1     5     9     6
 5.4194000000e-06     1     5     9     7
 7.7897000000e-06     1     5     9     8
 1.1666437200e-02     1     5     9     9
 9.6675800000e-05     1     5     9    10
 2.9744400000e-05     1     5     9    11
 1.7302800000e-05     1     5     9    12
-3.4542700000e-05     1     5     9    13
 2.0002974000e-03     1     5    10     1
 3.4988780000e-04     1     5    10     2
 5.4789000000e-06     1     5    10     3
 1.0661000000e-06     1     5    10     4
 2.5692930000e-04     1     5    10     6
 4.2622500000e-05     1     5    10     7
 2.4693700000e-05     1     5    10     8
 1.2887770000e-04     1     5    10     9
 1.5751022800e-02     1     5    10    10
-6.8660000000e-07     1     5    10    11
-9.8669000000e-06     1     5    10    12
-9.4965000000e-06     1     5    10    13
 6.9527700000e-05     1     5    11     1
 1.7617100000e-05     1     5    11     2
-3.7871000000e-06     1     5    11     3
 8.8152000000e-06     1     5    11     4
 1.0029200000e-05     1     5    11     6
-4.9906400000e-05     1     5    11     7
 5.9401500000e-05     1     5    11     8
-1.2143800000e-05     1     5    11     9
 3.6000000000e-07     1     5    11    10
 1.5753755800e-02     1     5    11    11
 1.8549600000e-05     1     5    11    12
-1.2677200000e-05     1     5    11    13
-9.8470000000e-06     1     5    12     1
 1.1590000000e-06     1     5    12     2
 1.0826956000e-03     1     5    12     3
-6.4597100000e-04     1     5    12     4
 7.7940000000e-07     1     5    12     6
 6.1175757000e-03     1     5    12     7
-1.5472409000e-03     1     5    12     8
-6.9241000000e-06     1     5    12     9
-7.2310000000e-06     1     5    12    10
 1.0944600000e-05     1     5    12    11
 1.4072066400e-02     1     5    12    12
-1.9732000000e-06     1     5    12    13
-9.7842600000e-05     1     5    13     1
-2.4103200000e-05     1     5    13     2
 6.4583840000e-04     1     5    13     3
 1.0825624000e-03     1     5    13     4