&FCI NORB= 13,NELEC=  2,MS2=0,
 ORBSYM=1,1,1,1,1,1,1,1,1,1,1,1,1
 ISYM=1,
&END
 1.2739831340e-01     1     1     2     2
 3.9732044400e-02     1     1     2     3
-5.8284454000e-03     1     1     2     4
-5.0213000000e-05     1     1     2     5
 2.6426800000e-05     1     1     2     6
 1.3346030600e-02     1     1     2     7
 9.9997000000e-06     1     1     2     8
-2.1193400000e-05     1     1     2     9
 3.9970163000e-03     1     1     2    10
-1.5424915000e-03     1     1     2    11
 1.8924410000e-04     1     1     2    12
-1.0615700000e-05     1     1     2    13
 3.9732044400e-02     1     1     3     2
 2.6332857500e-01     1     1     3     3
 2.4969210000e-03     1     1     3     4
 1.9091800000e-05     1     1     3     5
-1.1516800000e-05     1     1     3     6
-4.4886894700e-02     1     1     3     7
 1.2598700000e-05     1     1     3     8
 7.2414800000e-05     1     1     3     9
 7.0251835200e-02     1     1     3    10
 2.7140573000e-03     1     1     3    11
-3.2532670000e-04     1     1     3    12
-7.9824000000e-06     1     1     3    13
-5.8284454000e-03     1     1     4     2
 2.4969210000e-03     1     1     4     3
 2.7901361310e-01     1     1     4     4
-3.3563500000e-05     1     1     4     5
 1.8729000000e-05     1     1     4     6
 5.8517679500e-02     1     1     4     7
-2.8159030000e-04     1     1     4     8
 4.8568740000e-04     1     1     4     9
 3.5589531400e-02     1     1     4    10
 2.3148344800e-02     1     1     4    11
-2.8876411000e-03     1     1     4    12
-3.1508310000e-04     1     1     4    13
-5.0213000000e-05     1     1     5     2
 1.9091800000e-05     1     1     5     3
-3.3563500000e-05     1     1     5     4
 2.8489476780e-01     1     1     5     5
 6.7400000000e-07     1     1     5     6
 4.0572420000e-04     1     1     5     7
 2.7494598000e-03     1     1     5     8
-6.6329017100e-02     1     1     5     9
 3.1258550000e-04     1     1     5    10
 3.1013220000e-04     1     1     5    11
-5.7740740000e-04     1     1     5    12
 2.1268907000e-02     1     1     5    13
 2.6426800000e-05     1     1     6     2
-1.1516800000e-05     1     1     6     3
 1.8729000000e-05     1     1     6     4
 6.7400000000e-07     1     1     6     5
 2.8489156300e-01     1     1     6     6
-2.3587690000e-04     1     1     6     7
-6.6330224200e-02     1     1     6     8
-2.7515583000e-03     1     1     6     9
-1.2656460000e-04     1     1     6    10
-2.7132067000e-03     1     1     6    11
-2.1102656600e-02     1     1     6    12
-3.7215500000e-04     1     1     6    13
 1.3346030600e-02     1     1     7     2
-4.4886894700e-02     1     1     7     3
 5.8517679500e-02     1     1     7     4
 4.0572420000e-04     1     1     7     5
-2.3587690000e-04     1     1     7     6
 2.9412466260e-01     1     1     7     7
-1.2963300000e-05     1     1     7     8
 1.6335400000e-05     1     1     7     9
-2.7109935000e-03     1     1     7    10
 1.0863539100e-02     1     1     7    11
-1.3426921000e-03     1     1     7    12
 6.8406000000e-05     1     1     7    13
 9.9997000000e-06     1     1     8     2
 1.2598700000e-05     1     1     8     3
-2.8159030000e-04     1     1     8     4
 2.7494598000e-03     1     1     8     5
-6.6330224200e-02     1     1     8     6
-1.2963300000e-05     1     1     8     7
 3.1495528340e-01     1     1     8     8
 2.9630000000e-07     1     1     8     9
-5.4898000000e-06     1     1     8    10
 1.4531823000e-03     1     1     8    11
 1.1603917300e-02     1     1     8    12
 6.9139580000e-04     1     1     8    13
-2.1193400000e-05     1     1     9     2
 7.2414800000e-05     1     1     9     3
 4.8568740000e-04     1     1     9     4
-6.6329017100e-02     1     1     9     5
-2.7515583000e-03     1     1     9     6
 1.6335400000e-05     1     1     9     7
 2.9630000000e-07     1     1     9     8
 3.1496753700e-01     1     1     9     9
 1.2748500000e-05     1     1     9    10
-4.3342000000e-06     1     1     9    11
 7.8519910000e-04     1     1     9    12
-1.1696823600e-02     1     1     9    13
 3.9970163000e-03     1     1    10     2
 7.0251835200e-02     1     1    10     3
 3.5589531400e-02     1     1    10     4
 3.1258550000e-04     1     1    10     5
-1.2656460000e-04     1     1    10     6
-2.7109935000e-03     1     1    10     7
-5.4898000000e-06     1     1    10     8
 1.2748500000e-05     1     1    10     9
 3.3102726890e-01     1     1    10    10
 6.9238882000e-03     1     1    10    11
-8.4031090000e-04     1     1    10    12
-2.0821900000e-05     1     1    10    13
-1.5424915000e-03     1     1    11     2
 2.7140573000e-03     1     1    11     3
 2.3148344800e-02     1     1    11     4
 3.1013220000e-04     1     1    11     5
-2.7132067000e-03     1     1    11     6
 1.0863539100e-02     1     1    11     7
 1.4531823000e-03     1     1    11     8
-4.3342000000e-06     1     1    11     9
 6.9238882000e-03     1     1    11    10
 3.2250947290e-01     1     1    11    11
-4.4995400000e-05     1     1    11    12
-1.7283700000e-05     1     1    11    13
 1.8924410000e-04     1     1    12     2
-3.2532670000e-04     1     1    12     3
-2.8876411000e-03     1     1    12     4
-5.7740740000e-04     1     1    12     5
-2.1102656600e-02     1     1    12     6
-1.3426921000e-03     1     1    12     7
 1.1603917300e-02     1     1    12     8
 7.8519910000e-04     1     1    12     9
-8.4031090000e-04     1     1    12    10
-4.4995400000e-05     1     1    12    11
 3.2227172520e-01     1     1    12    12
 6.0580000000e-07     1     1    12    13
-1.0615700000e-05     1     1    13     2
-7.9824000000e-06     1     1    13     3
-3.1508310000e-04     1     1    13     4
 2.1268907000e-02     1     1    13     5
-3.7215500000e-04     1     1    13     6
 6.8406000000e-05     1     1    13     7
 6.9139580000e-04     1     1    13     8
-1.1696823600e-02     1     1    13     9
-2.0821900000e-05     1     1    13    10
-1.7283700000e-05     1     1    13    11
 6.0580000000e-07     1     1    13    12
 3.2226237410e-01     1     1    13    13
-1.2739831340e-01     1     2     2     1
-2.0289776500e-02     1     2     2     3
 2.0885993800e-02     1     2     2     4
 1.8783720000e-04     1     2     2     5
-9.5329500000e-05     1     2     2     6
-6.9838603000e-03     1     2     2     7
-8.0687000000e-06     1     2     2     8
 1.3641100000e-05     1     2     2     9
-5.5375882000e-03     1     2     2    10
 1.8983963000e-03     1     2     2    11
-2.3132210000e-04     1     2     2    12
-6.5096000000e-06     1     2     2    13
-3.9732044400e-02     1     2     3     1
-7.2362197100e-02     1     2     3     3
-5.7208421000e-03     1     2     3     4
-4.8628500000e-05     1     2     3     5
 2.5638100000e-05     1     2     3     6
 3.5750475700e-02     1     2     3     7
-6.6440000000e-07     1     2     3     8
-6.0718900000e-05     1     2     3     9
-3.8115817500e-02     1     2     3    10
 1.3152930000e-04     1     2     3    11
-1.8189700000e-05     1     2     3    12
 5.0825000000e-06     1     2     3    13
 5.8284454000e-03     1     2     4     1
-9.3417239000e-03     1     2     4     3
-9.0997600900e-02     1     2     4     4
 2.4133000000e-05     1     2     4     5
-1.3338300000e-05     1     2     4     6
-3.8864389100e-02     1     2     4     7
 1.8339980000e-04     1     2     4     8
-3.1933470000e-04     1     2     4     9
-2.5251877400e-02     1     2     4    10
-4.3401942000e-03     1     2     4    11
 5.4172560000e-04     1     2     4    12
 5.5718000000e-05     1     2     4    13
 5.0213000000e-05     1     2     5     1
-8.1958700000e-05     1     2     5     3
 2.5131800000e-05     1     2     5     4
-9.4725759400e-02     1     2     5     5
-3.6620000000e-07     1     2     5     6
-2.7110920000e-04     1     2     5     7
-1.8325079000e-03     1     2     5     8
 4.4201775300e-02     1     2     5     9
-2.2585560000e-04     1     2     5    10
-6.0568800000e-05     1     2     5    11
 1.1311270000e-04     1     2     5    12
-4.1603057000e-03     1     2     5    13
-2.6426800000e-05     1     2     6     1
 4.2294300000e-05     1     2     6     3
-1.3395900000e-05     1     2     6     4
-4.5420000000e-07     1     2     6     5
-9.4724081400e-02     1     2     6     6
 1.5758670000e-04     1     2     6     7
 4.4202968000e-02     1     2     6     8
 1.8336572000e-03     1     2     6     9
 9.3131100000e-05     1     2     6    10
 5.3451560000e-04     1     2     6    11
 4.1290033000e-03     1     2     6    12
 7.3608100000e-05     1     2     6    13
-1.3346030600e-02     1     2     7     1
 3.0611301700e-02     1     2     7     3
-2.8650582300e-02     1     2     7     4
-1.9548390000e-04     1     2     7     5
 1.1538500000e-04     1     2     7     6
-8.6859703400e-02     1     2     7     7
 1.1943600000e-05     1     2     7     8
-2.4367000000e-05     1     2     7     9
-1.3773065000e-03     1     2     7    10
-7.0366610000e-03     1     2     7    11
 8.6918550000e-04     1     2     7    12
-5.3729200000e-05     1     2     7    13
-9.9997000000e-06     1     2     8     1
-4.1980000000e-07     1     2     8     3
 1.4364840000e-04     1     2     8     4
-1.4283007000e-03     1     2     8     5
 3.4453372400e-02     1     2     8     6
 1.3125800000e-05     1     2     8     7
-1.0672693490e-01     1     2     8     8
-2.8590000000e-07     1     2     8     9
 1.3491000000e-06     1     2     8    10
-1.1472190000e-03     1     2     8    11
-9.1538330000e-03     1     2     8    12
-5.4507330000e-04     1     2     8    13
 2.1193400000e-05     1     2     9     1
-5.2647500000e-05     1     2     9     3
-2.5075220000e-04     1     2     9     4
 3.4452523700e-02     1     2     9     5
 1.4291792000e-03     1     2     9     6
-2.4868000000e-05     1     2     9     7
-2.5790000000e-07     1     2     9     8
-1.0673523000e-01     1     2     9     9
-6.6106000000e-06     1     2     9    10
 4.9184000000e-06     1     2     9    11
-6.1962410000e-04     1     2     9    12
 9.2281239000e-03     1     2     9    13
-3.9970163000e-03     1     2    10     1
-3.2911280800e-02     1     2    10     3
-1.9987404500e-02     1     2    10     4
-1.7857300000e-04     1     2    10     5
 7.3925400000e-05     1     2    10     6
 4.0621110000e-04     1     2    10     7
 2.1449000000e-06     1     2    10     8
-9.4692000000e-06     1     2    10     9
-1.2225925670e-01     1     2    10    10
-6.3711427000e-03     1     2    10    11
 7.7097090000e-04     1     2    10    12
 2.8016900000e-05     1     2    10    13
 1.5424915000e-03     1     2    11     1
-3.2234940000e-04     1     2    11     3
-4.1606007000e-03     1     2    11     4
-5.6790100000e-05     1     2    11     5
 5.0838090000e-04     1     2    11     6
-8.1495520000e-03     1     2    11     7
-1.2918090000e-03     1     2    11     8
 5.7549000000e-06     1     2    11     9
-7.2295446000e-03     1     2    11    10
-1.1243686420e-01     1     2    11    11
-1.6112300000e-05     1     2    11    12
 1.1127000000e-06     1     2    11    13
-1.8924410000e-04     1     2    12     1
 3.6983800000e-05     1     2    12     3
 5.2026210000e-04     1     2    12     4
 1.0757230000e-04     1     2    12     5
 3.9324753000e-03     1     2    12     6
 1.0036290000e-03     1     2    12     7
-1.0326702200e-02     1     2    12     8
-6.9919890000e-04     1     2    12     9
 8.7547560000e-04     1     2    12    10
-1.5794800000e-05     1     2    12    11
-1.1260702270e-01     1     2    12    12
 2.8214000000e-06     1     2    12    13
 1.0615700000e-05     1     2    13     1
 8.7846000000e-06     1     2    13     3
 4.9837400000e-05     1     2    13     4
-3.9627429000e-03     1     2    13     5
 6.9993200000e-05     1     2    13     6
-3.6597900000e-05     1     2    13     7
-6.1476710000e-04     1     2    13     8
 1.0409962400e-02     1     2    13     9
 3.4312300000e-05     1     2    13    10
-4.9560000000e-07     1     2    13    11
 3.0993000000e-06     1     2    13    12
-1.1260647260e-01     1     2    13    13
-3.9732044400e-02     1     3     2     1
 2.0289776500e-02     1     3     2     2
 3.6208818000e-03     1     3     2     4
 3.3330200000e-05     1     3     2     5
-1.6656200000e-05     1     3     2     6
 5.1391740000e-03     1     3     2     7
-2.4460000000e-07     1     3     2     8
-8.0714000000e-06     1     3     2     9
-5.2045367000e-03     1     3     2    10
 4.5387870000e-04     1     3     2    11
-5.5173500000e-05     1     3     2    12
-3.7021000000e-06     1     3     2    13
-2.6332857500e-01     1     3     3     1
 7.2362197100e-02     1     3     3     2
 1.2153085500e-02     1     3     3     4
 1.0942430000e-04     1     3     3     5
-5.5330700000e-05     1     3     3     6
 1.4190784800e-02     1     3     3     7
-1.1361600000e-05     1     3     3     8
-2.5157200000e-05     1     3     3     9
-3.6039900900e-02     1     3     3    10
 5.3831420000e-04     1     3     3    11
-7.1621700000e-05     1     3     3    12
 2.1604400000e-05     1     3     3    13
-2.4969210000e-03     1     3     4     1
 9.3417239000e-03     1     3     4     2
-5.6370268500e-02     1     3     4     4
 9.2435000000e-06     1     3     4     5
-5.1472000000e-06     1     3     4     6
-3.0529540600e-02     1     3     4     7
 1.7017750000e-04     1     3     4     8
-2.9727280000e-04     1     3     4     9
-2.4038589200e-02     1     3     4    10
-9.8089664000e-03     1     3     4    11
 1.2273064000e-03     1     3     4    12
 1.1112520000e-04     1     3     4    13
-1.9091800000e-05     1     3     5     1
 8.1958700000e-05     1     3     5     2
 9.2174000000e-06     1     3     5     4
-5.8081775000e-02     1     3     5     5
-1.6760000000e-07     1     3     5     6
-2.0434550000e-04     1     3     5     7
-1.6580481000e-03     1     3     5     8
 3.9997881400e-02     1     3     5     9
-2.1252950000e-04     1     3     5    10
-1.3023030000e-04     1     3     5    11
 2.4608290000e-04     1     3     5    12
-9.0783355000e-03     1     3     5    13
 1.1516800000e-05     1     3     6     1
-4.2294300000e-05     1     3     6     2
-5.2276000000e-06     1     3     6     4
-2.8130000000e-07     1     3     6     5
-5.8080736400e-02     1     3     6     6
 1.2081760000e-04     1     3     6     7
 3.9997719800e-02     1     3     6     8
 1.6593940000e-03     1     3     6     9
 8.7788400000e-05     1     3     6    10
 1.1607389000e-03     1     3     6    11
 9.0074585000e-03     1     3     6    12
 1.5939850000e-04     1     3     6    13
 4.4886894700e-02     1     3     7     1
-3.0611301700e-02     1     3     7     2
-1.2153647500e-02     1     3     7     4
-8.6595500000e-05     1     3     7     5
 4.9875200000e-05     1     3     7     6
-4.9270431500e-02     1     3     7     7
 4.8195000000e-06     1     3     7     8
-7.9609000000e-06     1     3     7     9
-1.2606260000e-04     1     3     7    10
-5.9107719000e-03     1     3     7    11
 7.2543570000e-04     1     3     7    12
-1.1793300000e-05     1     3     7    13
-1.2598700000e-05     1     3     8     1
 4.1980000000e-07     1     3     8     2
 4.8594700000e-05     1     3     8     4
-4.8321540000e-04     1     3     8     5
 1.1658205600e-02     1     3     8     6
 4.5044000000e-06     1     3     8     7
-5.7271730800e-02     1     3     8     8
-5.5500000000e-08     1     3     8     9
 2.0692000000e-06     1     3     8    10
-8.4798670000e-04     1     3     8    11
-6.7607630000e-03     1     3     8    12
-4.0279140000e-04     1     3     8    13
-7.2414800000e-05     1     3     9     1
 5.2647500000e-05     1     3     9     2
-8.2708400000e-05     1     3     9     4
 1.1656998000e-02     1     3     9     5
 4.8330820000e-04     1     3     9     6
-5.7380000000e-06     1     3     9     7
-5.4600000000e-08     1     3     9     8
-5.7276802800e-02     1     3     9     9
-5.1022000000e-06     1     3     9    10
 5.7909000000e-06     1     3     9    11
-4.5808620000e-04     1     3     9    12
 6.8141987000e-03     1     3     9    13
-7.0251835200e-02     1     3    10     1
 3.2911280800e-02     1     3    10     2
-4.6904514000e-03     1     3    10     4
-4.1974100000e-05     1     3    10     5
 1.5762700000e-05     1     3    10     6
 3.7087150000e-04     1     3    10     7
 2.0066000000e-06     1     3    10     8
-5.6732000000e-06     1     3    10     9
-6.5421004000e-02     1     3    10    10
-4.2909576000e-03     1     3    10    11
 5.1980100000e-04     1     3    10    12
 1.5493600000e-05     1     3    10    13
-2.7140573000e-03     1     3    11     1
 3.2234940000e-04     1     3    11     2
-4.8039350000e-04     1     3    11     4
-7.3922000000e-06     1     3    11     5
 7.7482300000e-05     1     3    11     6
-4.8839622000e-03     1     3    11     7
-8.0517550000e-04     1     3    11     8
 4.3263000000e-06     1     3    11     9
-4.7208909000e-03     1     3    11    10
-5.2686889100e-02     1     3    11    11
 1.5554100000e-05     1     3    11    12
 5.6090000000e-07     1     3    11    13
 3.2532670000e-04     1     3    12     1
-3.6983800000e-05     1     3    12     2
 5.9834000000e-05     1     3    12     4
 1.6555600000e-05     1     3    12     5
 6.1029660000e-04     1     3    12     6
 5.9966940000e-04     1     3    12     7
-6.4320304000e-03     1     3    12     8
-4.3576370000e-04     1     3    12     9
 5.7254090000e-04     1     3    12    10
 1.5575000000e-05     1     3    12    11
-5.2612662200e-02     1     3    12    12
 6.7019000000e-06     1     3    12    13
 7.9824000000e-06     1     3    13     1
-8.7846000000e-06     1     3    13     2
 1.5974800000e-05     1     3    13     4
-6.1435340000e-04     1     3    13     5
 1.0868800000e-05     1     3    13     6
-8.9133000000e-06     1     3    13     7
-3.8309220000e-04     1     3    13     8
 6.4831912000e-03     1     3    13     9
 1.8474100000e-05     1     3    13    10
 1.8496000000e-06     1     3    13    11
 6.6535000000e-06     1     3    13    12
-5.2608924700e-02     1     3    13    13
 5.8284454000e-03     1     4     2     1
-2.0885993800e-02     1     4     2     2
-3.6208818000e-03     1     4     2     3
-9.9880000000e-07     1     4     2     5
 5.7600000000e-08     1     4     2     6
-1.0213806800e-02     1     4     2     7
 3.9751400000e-05     1     4     2     8
-6.8582500000e-05     1     4     2     9
-5.2644729000e-03     1     4     2    10
-1.7959350000e-04     1     4     2    11
 2.1463500000e-05     1     4     2    12
 5.8806000000e-06     1     4     2    13
-2.4969210000e-03     1     4     3     1
 5.7208421000e-03     1     4     3     2
-1.2153085500e-02     1     4     3     3
 2.6100000000e-08     1     4     3     5
 8.0400000000e-08     1     4     3     6
-1.8375893100e-02     1     4     3     7
 1.2158280000e-04     1     4     3     8
-2.1456440000e-04     1     4     3     9
-1.9348137800e-02     1     4     3    10
-9.3285729000e-03     1     4     3    11
 1.1674724000e-03     1     4     3    12
 9.5150400000e-05     1     4     3    13
-2.7901361310e-01     1     4     4     1
 9.0997600900e-02     1     4     4     2
 5.6370268500e-02     1     4     4     3
 1.4413530000e-04     1     4     4     5
-7.3555800000e-05     1     4     4     6
-1.4404245800e-02     1     4     4     7
-2.9934000000e-05     1     4     4     8
 8.2072900000e-05     1     4     4     9
 1.3695778900e-02     1     4     4    10
-3.4705624700e-02     1     4     4    11
 4.4703950000e-03     1     4     4    12
 7.7805360000e-04     1     4     4    13
 3.3563500000e-05     1     4     5     1
-2.5131800000e-05     1     4     5     2
-9.2174000000e-06     1     4     5     3
-1.6247368900e-02     1     4     5     5
 1.8000000000e-09     1     4     5     6
 3.6938900000e-05     1     4     5     7
 1.4181850000e-04     1     4     5     8
-3.4085524000e-03     1     4     5     9
 4.4011900000e-05     1     4     5    10
-6.2231330000e-04     1     4     5    11
 8.6353930000e-04     1     4     5    12
-3.2021828100e-02     1     4     5    13
-1.8729000000e-05     1     4     6     1
 1.3395900000e-05     1     4     6     2
 5.2276000000e-06     1     4     6     3
 2.0200000000e-08     1     4     6     5
-1.6247361400e-02     1     4     6     6
-1.9939000000e-05     1     4     6     7
-3.4101136000e-03     1     4     6     8
-1.4161360000e-04     1     4     6     9
-2.0499000000e-05     1     4     6    10
 4.1456658000e-03     1     4     6    11
 3.1749236800e-02     1     4     6    12
 5.5571420000e-04     1     4     6    13
-5.8517679500e-02     1     4     7     1
 2.8650582300e-02     1     4     7     2
 1.2153647500e-02     1     4     7     3
 1.5600000000e-07     1     4     7     5
-9.9300000000e-08     1     4     7     6
-2.6593527300e-02     1     4     7     7
-1.2292900000e-05     1     4     7     8
 4.2144100000e-05     1     4     7     9
 1.5728776300e-02     1     4     7    10
-7.5231700000e-03     1     4     7    11
 9.4672350000e-04     1     4     7    12
 1.2796430000e-04     1     4     7    13
 2.8159030000e-04     1     4     8     1
-1.4364840000e-04     1     4     8     2
-4.8594700000e-05     1     4     8     3
-1.7519400000e-05     1     4     8     5
 4.2130020000e-04     1     4     8     6
 4.1180400000e-05     1     4     8     7
-1.9565459000e-02     1     4     8     8
-6.2000000000e-09     1     4     8     9
-6.7239800000e-05     1     4     8    10
-8.4538280000e-04     1     4     8    11
-6.7331811000e-03     1     4     8    12
-4.0059130000e-04     1     4     8    13
-4.8568740000e-04     1     4     9     1
 2.5075220000e-04     1     4     9     2
 8.2708400000e-05     1     4     9     3
 4.2139960000e-04     1     4     9     5
 1.7526100000e-05     1     4     9     6
-7.1953700000e-05     1     4     9     7
-9.2500000000e-08     1     4     9     8
-1.9565112000e-02     1     4     9     9
 1.1558060000e-04     1     4     9    10
 3.1659600000e-05     1     4     9    11
-4.5460720000e-04     1     4     9    12
 6.7880005000e-03     1     4     9    13
-3.5589531400e-02     1     4    10     1
 1.9987404500e-02     1     4    10     2
 4.6904514000e-03     1     4    10     3
 2.9090000000e-07     1     4    10     5
-3.4740000000e-07     1     4    10     6
-3.6777485000e-03     1     4    10     7
-2.4041000000e-06     1     4    10     8
 1.8257400000e-05     1     4    10     9
-1.0477550300e-02     1     4    10    10
-4.9657785000e-03     1     4    10    11
 6.3084340000e-04     1     4    10    12
 5.4327400000e-05     1     4    10    13
-2.3148344800e-02     1     4    11     1
 4.1606007000e-03     1     4    11     2
 4.8039350000e-04     1     4    11     3
-3.6884000000e-06     1     4    11     5
 1.1852990000e-04     1     4    11     6
 3.9237240000e-04     1     4    11     7
 6.0911170000e-04     1     4    11     8
-2.6847100000e-05     1     4    11     9
 6.2678874000e-03     1     4    11    10
-1.5521277100e-02     1     4    11    11
 7.2760800000e-05     1     4    11    12
 5.0288000000e-05     1     4    11    13
 2.8876411000e-03     1     4    12     1
-5.2026210000e-04     1     4    12     2
-5.9834000000e-05     1     4    12     3
 2.5545300000e-05     1     4    12     5
 9.8471700000e-04     1     4    12     6
-4.4626100000e-05     1     4    12     7
 4.7664995000e-03     1     4    12     8
 3.2267480000e-04     1     4    12     9
-7.7807560000e-04     1     4    12    10
 4.7654600000e-05     1     4    12    11
-1.5136779100e-02     1     4    12    12
-1.3929900000e-05     1     4    12    13
 3.1508310000e-04     1     4    13     1
-4.9837400000e-05     1     4    13     2
-1.5974800000e-05     1     4    13     3
-9.9224940000e-04     1     4    13     5
 1.7174300000e-05     1     4    13     6
-3.0208000000e-06     1     4    13     7
 2.8347890000e-04     1     4    13     8
-4.8089346000e-03     1     4    13     9
-8.1190400000e-05     1     4    13    10
-1.2713000000e-05     1     4    13    11
-9.6843000000e-06     1     4    13    12
-1.5129382600e-02     1     4    13    13
 5.0213000000e-05     1     5     2     1
-1.8783720000e-04     1     5     2     2
-3.3330200000e-05     1     5     2     3
 9.9880000000e-07     1     5     2     4
 8.8000000000e-08     1     5     2     6
-7.5625300000e-05     1     5     2     7
-4.0420720000e-04     1     5     2     8
 9.7492516000e-03     1     5     2     9
-4.7282600000e-05     1     5     2    10
-3.7787000000e-06     1     5     2    11
 5.5404000000e-06     1     5     2    12
-1.9756280000e-04     1     5     2    13
-1.9091800000e-05     1     5     3     1
 4.8628500000e-05     1     5     3     2
-1.0942430000e-04     1     5     3     3
-2.6100000000e-08     1     5     3     4
 1.1370000000e-07     1     5     3     6
-1.1775000000e-04     1     5     3     7
-1.1748327000e-03     1     5     3     8
 2.8340883400e-02     1     5     3     9
-1.7055540000e-04     1     5     3    10
-1.2283810000e-04     1     5     3    11
 2.2952730000e-04     1     5     3    12
-8.4639821000e-03     1     5     3    13
 3.3563500000e-05     1     5     4     1
-2.4133000000e-05     1     5     4     2
-9.2435000000e-06     1     5     4     3
-1.4413530000e-04     1     5     4     4
-1.8400000000e-08     1     5     4     6
 3.6782900000e-05     1     5     4     7
 1.5933790000e-04     1     5     4     8
-3.8299520000e-03     1     5     4     9
 4.3721000000e-05     1     5     4    10
-6.1862490000e-04     1     5     4    11
 8.3799400000e-04     1     5     4    12
-3.1029578700e-02     1     5     4    13
-2.8489476780e-01     1     5     5     1
 9.4725759400e-02     1     5     5     2
 5.8081775000e-02     1     5     5     3
 1.6247368900e-02     1     5     5     4
-7.4099400000e-05     1     5     5     6
-1.8988056700e-02     1     5     5     7
-6.8530000000e-06     1     5     5     8
-2.9411200000e-05     1     5     5     9
 9.8644647000e-03     1     5     5    10
 1.8478383200e-02     1     5     5    11
-9.0722820000e-04     1     5     5    12
 2.1587583000e-03     1     5     5    13
-6.7400000000e-07     1     5     6     1
 4.5420000000e-07     1     5     6     2
 2.8130000000e-07     1     5     6     3
-2.0200000000e-08     1     5     6     4
-1.4486140000e-04     1     5     6     6
-1.8230000000e-07     1     5     6     7
-3.1680200000e-05     1     5     6     8
 1.7194000000e-05     1     5     6     9
 7.0990000000e-07     1     5     6    10
 1.1360730000e-04     1     5     6    11
-2.5934769000e-03     1     5     6    12
-1.2990709000e-03     1     5     6    13
-4.0572420000e-04     1     5     7     1
 1.9548390000e-04     1     5     7     2
 8.6595500000e-05     1     5     7     3
-1.5600000000e-07     1     5     7     4
 2.7100000000e-08     1     5     7     6
-2.2342820000e-04     1     5     7     7
 1.1755970000e-04     1     5     7     8
-2.8317468000e-03     1     5     7     9
 1.0855750000e-04     1     5     7    10
-9.8401300000e-05     1     5     7    11
 1.6135870000e-04     1     5     7    12
-5.9020902000e-03     1     5     7    13
-2.7494598000e-03     1     5     8     1
 1.4283007000e-03     1     5     8     2
 4.8321540000e-04     1     5     8     3
 1.7519400000e-05     1     5     8     4
 3.2755000000e-06     1     5     8     6
-4.2054810000e-04     1     5     8     7
-1.7490680000e-04     1     5     8     8
-1.1649000000e-06     1     5     8     9
 6.3854860000e-04     1     5     8    10
 1.2736290000e-04     1     5     8    11
 5.5895410000e-04     1     5     8    12
 3.3334790000e-04     1     5     8    13
 6.6329017100e-02     1     5     9     1
-3.4452523700e-02     1     5     9     2
-1.1656998000e-02     1     5     9     3
-4.2139960000e-04     1     5     9     4
 1.8490000000e-06     1     5     9     6
 1.0142635600e-02     1     5     9     7
-1.6664000000e-06     1     5     9     8
-1.8637650000e-04     1     5     9     9
-1.5408270200e-02     1     5     9    10
-3.6468115000e-03     1     5     9    11
 1.5230190000e-04     1     5     9    12
-5.3010210000e-04     1     5     9    13
-3.1258550000e-04     1     5    10     1
 1.7857300000e-04     1     5    10     2
 4.1974100000e-05     1     5    10     3
-2.9090000000e-07     1     5    10     4
-7.7500000000e-08     1     5    10     6
-3.9503600000e-05     1     5    10     7
 1.4783400000e-05     1     5    10     8
-3.5360250000e-04     1     5    10     9
-9.6765800000e-05     1     5    10    10
-6.2007700000e-05     1     5    10    11
 1.1660450000e-04     1     5    10    12
-4.2975860000e-03     1     5    10    13
-3.1013220000e-04     1     5    11     1
 5.6790100000e-05     1     5    11     2
 7.3922000000e-06     1     5    11     3
 3.6884000000e-06     1     5    11     4
 1.0862000000e-06     1     5    11     6
 1.8384200000e-05     1     5    11     7
-6.5136100000e-05     1     5    11     8
 1.9549126000e-03     1     5    11     9
 8.8249900000e-05     1     5    11    10
-1.2448790000e-04     1     5    11    11
 8.2762400000e-05     1     5    11    12
-2.5788435000e-03     1     5    11    13
 5.7740740000e-04     1     5    12     1
-1.0757230000e-04     1     5    12     2
-1.6555600000e-05     1     5    12     3
-2.5545300000e-05     1     5    12     4
 8.4224000000e-06     1     5    12     6
-1.9048200000e-05     1     5    12     7
-3.4820320000e-04     1     5    12     8
-1.0098040000e-04     1     5    12     9
-1.4773250000e-04     1     5    12    10
-1.2431400000e-04     1     5    12    11
-2.6512090000e-04     1     5    12    12
 2.5950920000e-04     1     5    12    13
-2.1268907000e-02     1     5    13     1
 3.9627429000e-03     1     5    13     2
 6.1435340000e-04     1     5    13     3
 9.9224940000e-04     1     5    13     4