&FCI NORB= 13,NELEC=  2,MS2=0,
 ORBSYM=1,1,1,1,1,1,1,1,1,1,1,1,1
 ISYM=1,
&END
 2.9693348540e-01     1     1     2     2
-1.0429464000e-02     1     1     2     3
-3.0043110000e-04     1     1     2     4
-1.5276840000e-04     1     1     2     5
 8.5568474900e-02     1     1     2     6
-3.0166900000e-05     1     1     2     7
-4.8077600000e-05     1     1     2     8
-1.7353057800e-02     1     1     2     9
-1.0403960000e-04     1     1     2    10
 9.0774000000e-05     1     1     2    11
-2.8879900000e-05     1     1     2    12
 8.9169440000e-04     1     1     2    13
-1.0429464000e-02     1     1     3     2
 3.3185081470e-01     1     1     3     3
 8.9729400000e-05     1     1     3     4
 4.5639100000e-05     1     1     3     5
 7.2159650000e-04     1     1     3     6
 2.4114910000e-04     1     1     3     7
-2.2522442000e-03     1     1     3     8
-6.1404014700e-02     1     1     3     9
-4.8258390000e-04     1     1     3    10
 4.2227240000e-04     1     1     3    11
-4.6986800000e-05     1     1     3    12
 2.7069884000e-03     1     1     3    13
-3.0043110000e-04     1     1     4     2
 8.9729400000e-05     1     1     4     3
 3.2844425780e-01     1     1     4     4
 1.3643000000e-06     1     1     4     5
 2.6587000000e-05     1     1     4     6
 2.3796999900e-02     1     1     4     7
 5.8956867000e-02     1     1     4     8
-1.9597025000e-03     1     1     4     9
-5.0938900000e-05     1     1     4    10
-4.6231290000e-04     1     1     4    11
 1.8311954600e-02     1     1     4    12
 4.3531419100e-02     1     1     4    13
-1.5276840000e-04     1     1     5     2
 4.5639100000e-05     1     1     5     3
 1.3643000000e-06     1     1     5     4
 3.2842323900e-01     1     1     5     5
-2.4577600000e-05     1     1     5     6
-5.8988493200e-02     1     1     5     7
 2.3773817100e-02     1     1     5     8
-1.0583951000e-03     1     1     5     9
 1.3253350000e-04     1     1     5    10
 7.6669480000e-04     1     1     5    11
-4.3554995500e-02     1     1     5    12
 1.8304935300e-02     1     1     5    13
 8.5568474900e-02     1     1     6     2
 7.2159650000e-04     1     1     6     3
 2.6587000000e-05     1     1     6     4
-2.4577600000e-05     1     1     6     5
 3.7905529330e-01     1     1     6     6
-1.6463100000e-05     1     1     6     7
 2.0516200000e-05     1     1     6     8
 6.8090535000e-03     1     1     6     9
 1.1360000000e-07     1     1     6    10
-1.7130000000e-07     1     1     6    11
-8.5253000000e-06     1     1     6    12
 1.0071240000e-04     1     1     6    13
-3.0166900000e-05     1     1     7     2
 2.4114910000e-04     1     1     7     3
 2.3796999900e-02     1     1     7     4
-5.8988493200e-02     1     1     7     5
-1.6463100000e-05     1     1     7     6
 3.7849138420e-01     1     1     7     7
-4.8076000000e-06     1     1     7     8
-1.0212700000e-05     1     1     7     9
-1.9822500000e-05     1     1     7    10
-1.8751930000e-04     1     1     7    11
 1.1428655500e-02     1     1     7    12
-1.6498560000e-04     1     1     7    13
-4.8077600000e-05     1     1     8     2
-2.2522442000e-03     1     1     8     3
 5.8956867000e-02     1     1     8     4
 2.3773817100e-02     1     1     8     5
 2.0516200000e-05     1     1     8     6
-4.8076000000e-06     1     1     8     7
 3.7848891940e-01     1     1     8     8
 1.7675000000e-06     1     1     8     9
 1.6098100000e-05     1     1     8    10
-2.7920100000e-05     1     1     8    11
 1.6810930000e-04     1     1     8    12
 1.1375363300e-02     1     1     8    13
-1.7353057800e-02     1     1     9     2
-6.1404014700e-02     1     1     9     3
-1.9597025000e-03     1     1     9     4
-1.0583951000e-03     1     1     9     5
 6.8090535000e-03     1     1     9     6
-1.0212700000e-05     1     1     9     7
 1.7675000000e-06     1     1     9     8
 4.0201832970e-01     1     1     9     9
 7.0889500000e-05     1     1     9    10
-6.2563700000e-05     1     1     9    11
 3.2386100000e-05     1     1     9    12
-7.2394140000e-04     1     1     9    13
-1.0403960000e-04     1     1    10     2
-4.8258390000e-04     1     1    10     3
-5.0938900000e-05     1     1    10     4
 1.3253350000e-04     1     1    10     5
 1.1360000000e-07     1     1    10     6
-1.9822500000e-05     1     1    10     7
 1.6098100000e-05     1     1    10     8
 7.0889500000e-05     1     1    10     9
 3.7100182050e-01     1     1    10    10
-4.0030000000e-07     1     1    10    11
-1.5269800000e-05     1     1    10    12
 5.5842000000e-06     1     1    10    13
 9.0774000000e-05     1     1    11     2
 4.2227240000e-04     1     1    11     3
-4.6231290000e-04     1     1    11     4
 7.6669480000e-04     1     1    11     5
-1.7130000000e-07     1     1    11     6
-1.8751930000e-04     1     1    11     7
-2.7920100000e-05     1     1    11     8
-6.2563700000e-05     1     1    11     9
-4.0030000000e-07     1     1    11    10
 3.7100973280e-01     1     1    11    11
-1.3912950000e-04     1     1    11    12
-1.2514200000e-05     1     1    11    13
-2.8879900000e-05     1     1    12     2
-4.6986800000e-05     1     1    12     3
 1.8311954600e-02     1     1    12     4
-4.3554995500e-02     1     1    12     5
-8.5253000000e-06     1     1    12     6
 1.1428655500e-02     1     1    12     7
 1.6810930000e-04     1     1    12     8
 3.2386100000e-05     1     1    12     9
-1.5269800000e-05     1     1    12    10
-1.3912950000e-04     1     1    12    11
 3.8527847700e-01     1     1    12    12
 9.4880000000e-07     1     1    12    13
 8.9169440000e-04     1     1    13     2
 2.7069884000e-03     1     1    13     3
 4.3531419100e-02     1     1    13     4
 1.8304935300e-02     1     1    13     5
 1.0071240000e-04     1     1    13     6
-1.6498560000e-04     1     1    13     7
 1.1375363300e-02     1     1    13     8
-7.2394140000e-04     1     1    13     9
 5.5842000000e-06     1     1    13    10
-1.2514200000e-05     1     1    13    11
 9.4880000000e-07     1     1    13    12
 3.8530026310e-01     1     1    13    13
-2.9693348540e-01     1     2     2     1
-4.1846592000e-02     1     2     2     3
-1.2231200000e-03     1     2     2     4
-6.2207310000e-04     1     2     2     5
 5.5842287500e-02     1     2     2     6
-4.2428900000e-05     1     2     2     7
 3.1713800000e-05     1     2     2     8
 9.9578269000e-03     1     2     2     9
-3.1849200000e-05     1     2     2    10
 2.7754800000e-05     1     2     2    11
-1.0814200000e-05     1     2     2    12
 2.8166370000e-04     1     2     2    13
 1.0429464000e-02     1     2     3     1
 8.4047210600e-02     1     2     3     3
 7.9921100000e-05     1     2     3     4
 4.0676900000e-05     1     2     3     5
 1.3623806700e-02     1     2     3     6
 1.9851770000e-04     1     2     3     7
-1.9053405000e-03     1     2     3     8
-5.1882352000e-02     1     2     3     9
-1.2514340000e-04     1     2     3    10
 1.0960590000e-04     1     2     3    11
-4.8517000000e-06     1     2     3    12
 6.6614350000e-04     1     2     3    13
 3.0043110000e-04     1     2     4     1
 7.7284900000e-05     1     2     4     3
 8.1250345700e-02     1     2     4     4
 1.2263000000e-06     1     2     4     5
 4.1059510000e-04     1     2     4     6
 2.0097957800e-02     1     2     4     7
 4.9794941500e-02     1     2     4     8
-1.6582713000e-03     1     2     4     9
-2.8048000000e-06     1     2     4    10
-1.1584180000e-04     1     2     4    11
 4.9112376000e-03     1     2     4    12
 1.1666477800e-02     1     2     4    13
 1.5276840000e-04     1     2     5     1
 3.9325300000e-05     1     2     5     3
 1.2222000000e-06     1     2     5     4
 8.1240060200e-02     1     2     5     5
 1.7616230000e-04     1     2     5     6
-4.9824143800e-02     1     2     5     7
 2.0079362400e-02     1     2     5     8
-8.9333350000e-04     1     2     5     9
 3.0001500000e-05     1     2     5    10
 1.9892610000e-04     1     2     5    11
-1.1678539200e-02     1     2     5    12
 4.9057206000e-03     1     2     5    13
-8.5568474900e-02     1     2     6     1
 3.2824359000e-03     1     2     6     3
 1.0148900000e-04     1     2     6     4
 3.9611100000e-05     1     2     6     5
 9.0720802400e-02     1     2     6     6
-1.7847000000e-05     1     2     6     7
 2.5906000000e-05     1     2     6     8
 1.1491389500e-02     1     2     6     9
 6.9902000000e-06     1     2     6    10
-6.1052000000e-06     1     2     6    11
-4.4974000000e-06     1     2     6    12
-2.1726600000e-05     1     2     6    13
 3.0166900000e-05     1     2     7     1
 7.1834600000e-05     1     2     7     3
 7.2944522000e-03     1     2     7     4
-1.8090349000e-02     1     2     7     5
-7.7927000000e-06     1     2     7     6
 8.7647784400e-02     1     2     7     7
-3.4730000000e-06     1     2     7     8
-8.4064000000e-06     1     2     7     9
-1.6875900000e-05     1     2     7    10
-1.0481590000e-04     1     2     7    11
 5.5542524000e-03     1     2     7    12
-7.6010800000e-05     1     2     7    13
 4.8077600000e-05     1     2     8     1
-6.8581700000e-04     1     2     8     3
 1.8078178000e-02     1     2     8     4
 7.2883068000e-03     1     2     8     5
-6.0890000000e-07     1     2     8     6
-1.9080000000e-06     1     2     8     7
 8.7647804400e-02     1     2     8     8
 6.1646000000e-06     1     2     8     9
 3.7661000000e-06     1     2     8    10
-1.9140600000e-05     1     2     8    11
 7.9248700000e-05     1     2     8    12
 5.5257037000e-03     1     2     8    13
 1.7353057800e-02     1     2     9     1
-1.7948031000e-02     1     2     9     3
-5.7417690000e-04     1     2     9     4
-3.0988830000e-04     1     2     9     5
 1.5578049000e-03     1     2     9     6
-3.5369000000e-06     1     2     9     7
 1.1750700000e-05     1     2     9     8
 1.0145624650e-01     1     2     9     9
 6.4067800000e-05     1     2     9    10
-5.5788900000e-05     1     2     9    11
 2.5869100000e-05     1     2     9    12
-6.0434290000e-04     1     2     9    13
 1.0403960000e-04     1     2    10     1
-4.5211000000e-05     1     2    10     3
 2.9858000000e-06     1     2    10     4
 8.0638000000e-06     1     2    10     5
-2.0085100000e-05     1     2    10     6
-2.9729000000e-05     1     2    10     7
 7.2180000000e-06     1     2    10     8
 1.0374250000e-04     1     2    10     9
 7.9699945800e-02     1     2    10    10
-1.7660000000e-07     1     2    10    11
-2.5005600000e-05     1     2    10    12
-6.7543000000e-06     1     2    10    13
-9.0774000000e-05     1     2    11     1
 3.9694500000e-05     1     2    11     3
-3.6146700000e-05     1     2    11     4
 6.5602900000e-05     1     2    11     5
 1.7484400000e-05     1     2    11     6
-1.9235460000e-04     1     2    11     7
-3.3839600000e-05     1     2    11     8
-9.0557700000e-05     1     2    11     9
-1.8950000000e-07     1     2    11    10
 7.9705743200e-02     1     2    11    11
-1.4303730000e-04     1     2    11    12
-1.8140800000e-05     1     2    11    13
 2.8879900000e-05     1     2    12     1
-1.8975000000e-06     1     2    12     3
 1.6505119000e-03     1     2    12     4
-3.9255336000e-03     1     2    12     5
-8.4159000000e-06     1     2    12     6
 1.0362274300e-02     1     2    12     7
 1.4936500000e-04     1     2    12     8
 4.5964800000e-05     1     2    12     9
-2.4349100000e-05     1     2    12    10
-1.4274820000e-04     1     2    12    11
 9.0713334200e-02     1     2    12    12
-1.2040000000e-07     1     2    12    13
-8.9169440000e-04     1     2    13     1
 2.4293580000e-04     1     2    13     3
 3.9218502000e-03     1     2    13     4
 1.6490717000e-03     1     2    13     5
 2.0794040000e-04     1     2    13     6
-1.4562090000e-04     1     2    13     7
 1.0321320000e-02     1     2    13     8
-9.7884970000e-04     1     2    13     9
-5.8707000000e-06     1     2    13    10
-1.7912800000e-05     1     2    13    11
 5.1070000000e-07     1     2    13    12
 9.0728146100e-02     1     2    13    13
 1.0429464000e-02     1     3     2     1
 4.1846592000e-02     1     3     2     2
 2.6362000000e-06     1     3     2     4
 1.3516000000e-06     1     3     2     5
 1.0341370800e-02     1     3     2     6
 1.2668310000e-04     1     3     2     7
-1.2195235000e-03     1     3     2     8
-3.3934321000e-02     1     3     2     9
-7.9932400000e-05     1     3     2    10
 6.9911400000e-05     1     3     2    11
-2.9542000000e-06     1     3     2    12
 4.2320770000e-04     1     3     2    13
-3.3185081470e-01     1     3     3     1
-8.4047210600e-02     1     3     3     2
-1.2609810000e-03     1     3     3     4
-6.4140660000e-04     1     3     3     5
-2.5471803100e-02     1     3     3     6
-2.0187000000e-05     1     3     3     7
 3.4900190000e-04     1     3     3     8
 1.0118284000e-03     1     3     3     9
-3.6567850000e-04     1     3     3    10
 3.4142090000e-04     1     3     3    11
 3.9786800000e-05     1     3     3    12
 1.1026037000e-03     1     3     3    13
-8.9729400000e-05     1     3     4     1
-7.7284900000e-05     1     3     4     2
 4.2968108500e-02     1     3     4     4
-2.8700000000e-08     1     3     4     5
-2.6114950000e-04     1     3     4     6
-1.7259750000e-03     1     3     4     7
-4.2690971000e-03     1     3     4     8
 2.7407030000e-04     1     3     4     9
-1.2150654000e-03     1     3     4    10
-5.4314190000e-04     1     3     4    11
 1.5011910300e-02     1     3     4    12
 3.5720966600e-02     1     3     4    13
-4.5639100000e-05     1     3     5     1
-3.9325300000e-05     1     3     5     2
-3.2600000000e-08     1     3     5     4
 4.2967020700e-02     1     3     5     5
-1.2872770000e-04     1     3     5     6
 4.2777985000e-03     1     3     5     7
-1.7199801000e-03     1     3     5     8
 1.3930640000e-04     1     3     5     9
-8.5803900000e-05     1     3     5    10
 1.7991581000e-03     1     3     5    11
-3.5699925500e-02     1     3     5    12
 1.5023067400e-02     1     3     5    13
-7.2159650000e-04     1     3     6     1
-3.2824359000e-03     1     3     6     2
-2.4575000000e-06     1     3     6     4
-1.6472000000e-06     1     3     6     5
 4.2222152400e-02     1     3     6     6
 2.5899900000e-05     1     3     6     7
-1.7688860000e-04     1     3     6     8
-1.3909944400e-02     1     3     6     9
-4.9273700000e-05     1     3     6    10
 4.2857600000e-05     1     3     6    11
-7.1530000000e-07     1     3     6    12
 3.5145500000e-04     1     3     6    13
-2.4114910000e-04     1     3     7     1
-7.1834600000e-05     1     3     7     2
 2.5142040000e-04     1     3     7     4
-6.2236020000e-04     1     3     7     5
-6.0809700000e-05     1     3     7     6
 4.6817727000e-02     1     3     7     7
 1.7320000000e-07     1     3     7     8
-3.4987000000e-06     1     3     7     9
-6.9247500000e-05     1     3     7    10
-3.6300640000e-04     1     3     7    11
 1.0929658800e-02     1     3     7    12
-1.6500820000e-04     1     3     7    13
 2.2522442000e-03     1     3     8     1
 6.8581700000e-04     1     3     8     2
 6.2249490000e-04     1     3     8     4
 2.5178010000e-04     1     3     8     5
 6.2216580000e-04     1     3     8     6
-2.2940000000e-07     1     3     8     7
 4.6818027700e-02     1     3     8     8
 1.1703920000e-04     1     3     8     9
-1.7841120000e-04     1     3     8    10
 1.4214500000e-05     1     3     8    11
 1.6385680000e-04     1     3     8    12
 1.0911118100e-02     1     3     8    13
 6.1404014700e-02     1     3     9     1
 1.7948031000e-02     1     3     9     2
-2.3922000000e-06     1     3     9     4
-1.9958000000e-06     1     3     9     5
 8.7854984000e-03     1     3     9     6
-1.2747100000e-05     1     3     9     7
 6.8946300000e-05     1     3     9     8
 4.8588591100e-02     1     3     9     9
 5.9690400000e-05     1     3     9    10
-5.2527500000e-05     1     3     9    11
 2.1477200000e-05     1     3     9    12
-4.8419090000e-04     1     3     9    13
 4.8258390000e-04     1     3    10     1
 4.5211000000e-05     1     3    10     2
-2.4371000000e-06     1     3    10     4
 3.1402000000e-06     1     3    10     5
 2.3859300000e-05     1     3    10     6
 4.5552500000e-05     1     3    10     7
 1.5990460000e-04     1     3    10     8
-4.4502900000e-05     1     3    10     9
 4.3143087500e-02     1     3    10    10
-7.7850000000e-07     1     3    10    11
 3.8073900000e-05     1     3    10    12
 1.5097440000e-04     1     3    10    13
-4.2227240000e-04     1     3    11     1
-3.9694500000e-05     1     3    11     2
-1.1628200000e-05     1     3    11     4
 1.9643100000e-05     1     3    11     5
-2.0849900000e-05     1     3    11     6
 2.1585780000e-04     1     3    11     7
-2.8377900000e-05     1     3    11     8
 3.8505000000e-05     1     3    11     9
 3.4720000000e-07     1     3    11    10
 4.3142522000e-02     1     3    11    11
 1.6087340000e-04     1     3    11    12
-3.7599200000e-05     1     3    11    13
 4.6986800000e-05     1     3    12     1
 1.8975000000e-06     1     3    12     2
 4.1224920000e-04     1     3    12     4
-9.8691040000e-04     1     3    12     5
 3.3020000000e-07     1     3    12     6
-2.2533213000e-03     1     3    12     7
-2.8985800000e-05     1     3    12     8
-9.6231000000e-06     1     3    12     9
-2.3633800000e-05     1     3    12    10
-8.6546400000e-05     1     3    12    11
 4.3931578100e-02     1     3    12    12
-1.9423000000e-06     1     3    12    13
-2.7069884000e-03     1     3    13     1
-2.4293580000e-04     1     3    13     2
 9.8447620000e-04     1     3    13     4
 4.1121370000e-04     1     3    13     5
-1.0414740000e-04     1     3    13     6
 2.9245100000e-05     1     3    13     7
-2.2523017000e-03     1     3    13     8
 2.2393090000e-04     1     3    13     9
-1.0087020000e-04     1     3    13    10
 2.7252700000e-05     1     3    13    11
 1.4016000000e-06     1     3    13    12
 4.3942243700e-02     1     3    13    13
 3.0043110000e-04     1     4     2     1
 1.2231200000e-03     1     4     2     2
-2.6362000000e-06     1     4     2     3
 4.1000000000e-09     1     4     2     5
 3.0910610000e-04     1     4     2     6
 1.2803505600e-02     1     4     2     7
 3.1716763500e-02     1     4     2     8
-1.0840944000e-03     1     4     2     9
-5.7906000000e-06     1     4     2    10
-7.9695100000e-05     1     4     2    11
 3.2607257000e-03     1     4     2    12
 7.7446276000e-03     1     4     2    13
-8.9729400000e-05     1     4     3     1
-7.9921100000e-05     1     4     3     2
 1.2609810000e-03     1     4     3     3
 3.9000000000e-09     1     4     3     5
-2.5869200000e-04     1     4     3     6
-1.9773954000e-03     1     4     3     7
-4.8915920000e-03     1     4     3     8
 2.7646250000e-04     1     4     3     9
-1.2126283000e-03     1     4     3    10
-5.3151370000e-04     1     4     3    11
 1.4599661100e-02     1     4     3    12
 3.4736490400e-02     1     4     3    13
-3.2844425780e-01     1     4     4     1
-8.1250345700e-02     1     4     4     2
-4.2968108500e-02     1     4     4     3
-6.3706950000e-04     1     4     4     5
-1.6740303400e-02     1     4     4     6
-8.3775300000e-05     1     4     4     7
-3.0275840000e-04     1     4     4     8
-8.2337227000e-03     1     4     4     9
 2.9174818600e-02     1     4     4    10
 2.0772297900e-02     1     4     4    11
 1.3837072000e-03     1     4     4    12
 5.0457060000e-04     1     4     4    13
-1.3643000000e-06     1     4     5     1
-1.2222000000e-06     1     4     5     2
 3.2600000000e-08     1     4     5     3
 1.2524376000e-03     1     4     5     5
-3.8143000000e-06     1     4     5     6
 9.4851800000e-05     1     4     5     7
-1.2459990000e-04     1     4     5     8
 3.8457000000e-06     1     4     5     9
 2.1276605900e-02     1     4     5    10
-2.9464238600e-02     1     4     5    11
-1.3150639000e-03     1     4     5    12
 8.8970620000e-04     1     4     5    13
-2.6587000000e-05     1     4     6     1
-1.0148900000e-04     1     4     6     2
 2.4575000000e-06     1     4     6     3
-1.5400000000e-08     1     4     6     5
 1.2305704000e-03     1     4     6     6
 1.7375400000e-03     1     4     6     7
 4.3020573000e-03     1     4     6     8
-4.3405990000e-04     1     4     6     9
-3.7821000000e-06     1     4     6    10
-2.8968200000e-05     1     4     6    11
 1.5185227000e-03     1     4     6    12
 3.6073346000e-03     1     4     6    13
-2.3796999900e-02     1     4     7     1
-7.2944522000e-03     1     4     7     2
-2.5142040000e-04     1     4     7     3
-2.4617400000e-05     1     4     7     5
-6.7377317000e-03     1     4     7     6
 1.3709864000e-03     1     4     7     7
-1.2636800000e-05     1     4     7     8
-1.5970870000e-03     1     4     7     9
-1.2221725000e-03     1     4     7    10
 5.7032630000e-03     1     4     7    11
 4.5157020000e-04     1     4     7    12
-1.3899930000e-04     1     4     7    13
-5.8956867000e-02     1     4     8     1
-1.8078178000e-02     1     4     8     2
-6.2249490000e-04     1     4     8     3
-2.0399000000e-06     1     4     8     5
-1.6694079400e-02     1     4     8     6
 3.9122000000e-06     1     4     8     7
 1.3354448000e-03     1     4     8     8
-3.9580052000e-03     1     4     8     9
 5.9194120000e-03     1     4     8    10
 1.5945878000e-03     1     4     8    11
 7.5434300000e-05     1     4     8    12
-5.5488000000e-05     1     4     8    13
 1.9597025000e-03     1     4     9     1
 5.7417690000e-04     1     4     9     2
 2.3922000000e-06     1     4     9     3
-2.1900000000e-08     1     4     9     5
 2.9352460000e-04     1     4     9     6
-1.0815879000e-03     1     4     9     7
-2.6799107000e-03     1     4     9     8
 1.4571737000e-03     1     4     9     9
-2.3738800000e-05     1     4     9    10
 2.0954900000e-05     1     4     9    11
-1.5850520000e-03     1     4     9    12
-3.7739992000e-03     1     4     9    13
 5.0938900000e-05     1     4    10     1
-2.9858000000e-06     1     4    10     2
 2.4371000000e-06     1     4    10     3
 4.0999999992e-09     1     4    10     5
 3.6940000000e-07     1     4    10     6
 1.4683224000e-03     1     4    10     7
-4.3096914000e-03     1     4    10     8
-2.7718000000e-06     1     4    10     9
 1.2591022000e-03     1     4    10    10
-1.9329700000e-05     1     4    10    11
 1.3279825000e-03     1     4    10    12
-4.0595500000e-03     1     4    10    13
 4.6231290000e-04     1     4    11     1
 3.6146700000e-05     1     4    11     2
 1.1628200000e-05     1     4    11     3
 4.0800000000e-07     1     4    11     5
 1.9095400000e-05     1     4    11     6
-4.6454091000e-03     1     4    11     7
-7.2892720000e-04     1     4    11     8
-7.1758600000e-05     1     4    11     9
 1.1356000000e-05     1     4    11    10
 1.2824860000e-03     1     4    11    11
-4.4137775000e-03     1     4    11    12
-5.4957160000e-04     1     4    11    13
-1.8311954600e-02     1     4    12     1
-1.6505119000e-03     1     4    12     2
-4.1224920000e-04     1     4    12     3
-3.3693200000e-05     1     4    12     5
-8.0004740000e-04     1     4    12     6
-1.2920340000e-04     1     4    12     7
-2.7828000000e-06     1     4    12     8
 1.9165904000e-03     1     4    12     9
-5.0485300000e-04     1     4    12    10
 3.0827447000e-03     1     4    12    11
 1.2970446000e-03     1     4    12    12
-2.2576170000e-04     1     4    12    13
-4.3531419100e-02     1     4    13     1
-3.9218502000e-03     1     4    13     2
-9.8447620000e-04     1     4    13     3
-2.7354000000e-06     1     4    13     5
-1.9036573000e-03     1     4    13     6
 2.0328200000e-05     1     4    13     7
 1.7721900000e-05     1     4    13     8
 4.5572700000e-03     1     4    13     9
 3.3776073000e-03     1     4    13    10
 9.0903750000e-04     1     4    13    11
 2.4639230000e-04     1     4    13    12
 1.2228244000e-03     1     4    13    13
 1.5276840000e-04     1     5     2     1
 6.2207310000e-04     1     5     2     2
-1.3516000000e-06     1     5     2     3
-4.1000000000e-09     1     5     2     4
 1.3655120000e-04     1     5     2     6
-3.1733794800e-02     1     5     2     7
 1.2791055600e-02     1     5     2     8
-5.8344520000e-04     1     5     2     9
 2.1937700000e-05     1     5     2    10
 1.3332320000e-04     1     5     2    11
-7.7530056000e-03     1     5     2    12
 3.2566489000e-03     1     5     2    13
-4.5639100000e-05     1     5     3     1
-4.0676900000e-05     1     5     3     2
 6.4140660000e-04     1     5     3     3
-3.9000000000e-09     1     5     3     4
-1.2708050000e-04     1     5     3     6
 4.9001587000e-03     1     5     3     7
-1.9717602000e-03     1     5     3     8
 1.4130220000e-04     1     5     3     9
-8.8944100000e-05     1     5     3    10
 1.7795150000e-03     1     5     3    11
-3.4713015100e-02     1     5     3    12
 1.4611853700e-02     1     5     3    13
-1.3643000000e-06     1     5     4     1
-1.2263000000e-06     1     5     4     2
 2.8700000000e-08     1     5     4     3
 6.3706950000e-04     1     5     4     4
-3.7989000000e-06     1     5     4     6
 1.1946920000e-04     1     5     4     7
-1.2256000000e-04     1     5     4     8
 3.8676000000e-06     1     5     4     9
 2.1276601800e-02     1     5     4    10
-2.9464646600e-02     1     5     4    11
-1.2813707000e-03     1     5     4    12
 8.9244160000e-04     1     5     4    13
-3.2842323900e-01     1     5     5     1
-8.1240060200e-02     1     5     5     2
-4.2967020700e-02     1     5     5     3
-1.2524376000e-03     1     5     5     4
-1.6728981700e-02     1     5     5     6
 1.5407670000e-04     1     5     5     7
-9.5870900000e-05     1     5     5     8
-8.2393910000e-03     1     5     5     9
-2.8860579500e-02     1     5     5    10
-2.1065517800e-02     1     5     5    11
-1.4383914000e-03     1     5     5    12
-1.1855012000e-03     1     5     5    13
 2.4577600000e-05     1     5     6     1
-3.9611100000e-05     1     5     6     2
 1.6472000000e-06     1     5     6     3
 1.5400000000e-08     1     5     6     4
 6.3730950000e-04     1     5     6     6
-4.3029888000e-03     1     5     6     7
 1.7360034000e-03     1     5     6     8
-2.2546180000e-04     1     5     6     9
 1.1880400000e-05     1     5     6    10
 5.7562600000e-05     1     5     6    11
-3.6093644000e-03     1     5     6    12
 1.5157811000e-03     1     5     6    13
 5.8988493200e-02     1     5     7     1
 1.8090349000e-02     1     5     7     2
 6.2236020000e-04     1     5     7     3
 2.4617400000e-05     1     5     7     4
 1.6705637700e-02     1     5     7     6
 6.7188940000e-04     1     5     7     7
 1.7099100000e-05     1     5     7     8
 3.9613849000e-03     1     5     7     9
 5.8508306000e-03     1     5     7    10
 1.6581856000e-03     1     5     7    11
 2.0021510000e-04     1     5     7    12
 3.7819280000e-04     1     5     7    13
-2.3773817100e-02     1     5     8     1
-7.2883068000e-03     1     5     8     2
-2.5178010000e-04     1     5     8     3
 2.0399000000e-06     1     5     8     4
-6.7318458000e-03     1     5     8     6
 1.6000600000e-05     1     5     8     7
 6.8962910000e-04     1     5     8     8
-1.5962326000e-03     1     5     8     9
 1.2452917000e-03     1     5     8    10
-5.7342730000e-03     1     5     8    11
-1.0809030000e-04     1     5     8    12
-6.7720000000e-06     1     5     8    13
 1.0583951000e-03     1     5     9     1
 3.0988830000e-04     1     5     9     2
 1.9958000000e-06     1     5     9     3
 2.1900000000e-08     1     5     9     4
 1.6561780000e-04     1     5     9     6
 2.6821020000e-03     1     5     9     7
-1.0804423000e-03     1     5     9     8
 7.4585350000e-04     1     5     9     9
 1.0927000000e-06     1     5     9    10
-2.7862300000e-05     1     5     9    11
 3.7673012000e-03     1     5     9    12
-1.5882095000e-03     1     5     9    13
-1.3253350000e-04     1     5    10     1
-8.0638000000e-06     1     5    10     2
-3.1402000000e-06     1     5    10     3
-4.0999999992e-09     1     5    10     4
-6.9516000000e-06     1     5    10     6
-4.2915291000e-03     1     5    10     7
-1.4739405000e-03     1     5    10     8
 2.5216700000e-05     1     5    10     9
 6.4324050000e-04     1     5    10    10
 6.3914500000e-05     1     5    10    11
-3.9697553000e-03     1     5    10    12
-1.3717528000e-03     1     5    10    13
-7.6669480000e-04     1     5    11     1
-6.5602900000e-05     1     5    11     2
-1.9643100000e-05     1     5    11     3
-4.0800000000e-07     1     5    11     4
-3.7384400000e-05     1     5    11     6
-7.4235580000e-04     1     5    11     7
 4.6563896000e-03     1     5    11     8
 7.7299300000e-05     1     5    11     9
-6.1974500000e-05     1     5    11    10
 6.3191960000e-04     1     5    11    11
-6.4790090000e-04     1     5    11    12
 4.4278988000e-03     1     5    11    13
 4.3554995500e-02     1     5    12     1
 3.9255336000e-03     1     5    12     2
 9.8691040000e-04     1     5    12     3
 3.3693200000e-05     1     5    12     4
 1.9036840000e-03     1     5    12     6
-3.6106500000e-05     1     5    12     7
 5.1175200000e-05     1     5    12     8
-4.5628256000e-03     1     5    12     9
 3.2820267000e-03     1     5    12    10
 1.0073844000e-03     1     5    12    11
 6.8794630000e-04     1     5    12    12
 5.8566200000e-04     1     5    12    13
-1.8304935300e-02     1     5    13     1
-1.6490717000e-03     1     5    13     2
-4.1121370000e-04     1     5    13     3
 2.7354000000e-06     1     5    13     4