&FCI NORB= 13,NELEC=  2,MS2=0,
 ORBSYM=1,1,1,1,1,1,1,1,1,1,1,1,1
 ISYM=1,
&END
 3.1518967230e-01     1     1     2     2
-8.2519400000e-05     1     1     2     3
 2.3828740000e-04     1     1     2     4
-1.2224753700e-02     1     1     2     5
 9.3436217600e-02     1     1     2     6
 3.3167600000e-05     1     1     2     7
-5.2215000000e-06     1     1     2     8
-1.0274399100e-02     1     1     2     9
-1.2554500000e-04     1     1     2    10
 2.8472660000e-04     1     1     2    11
 1.5348553000e-03     1     1     2    12
 1.8562972300e-02     1     1     2    13
-8.2519400000e-05     1     1     3     2
 3.4363689340e-01     1     1     3     3
-1.3392000000e-06     1     1     3     4
 6.6482200000e-05     1     1     3     5
-1.9585500000e-05     1     1     3     6
 2.3814059000e-03     1     1     3     7
 6.8580980000e-02     1     1     3     8
-5.0100740000e-04     1     1     3     9
-2.6970050000e-04     1     1     3    10
-7.7138450000e-04     1     1     3    11
-3.7379551000e-02     1     1     3    12
 2.0990373000e-03     1     1     3    13
 2.3828740000e-04     1     1     4     2
-1.3392000000e-06     1     1     4     3
 3.4363762270e-01     1     1     4     4
-1.8741330000e-04     1     1     4     5
 3.9115000000e-06     1     1     4     6
 6.8611347700e-02     1     1     4     7
-2.3751754000e-03     1     1     4     8
 1.3223114000e-03     1     1     4     9
-7.0288460000e-04     1     1     4    10
-2.5429390000e-04     1     1     4    11
 2.5545047700e-02     1     1     4    12
-4.7822007000e-03     1     1     4    13
-1.2224753700e-02     1     1     5     2
 6.6482200000e-05     1     1     5     3
-1.8741330000e-04     1     1     5     4
 3.5549393760e-01     1     1     5     5
-1.9705699000e-03     1     1     5     6
 1.2241677000e-03     1     1     5     7
-5.5724030000e-04     1     1     5     8
-7.0491552200e-02     1     1     5     9
-3.0259540000e-04     1     1     5    10
 6.5796780000e-04     1     1     5    11
 4.3629477000e-03     1     1     5    12
 4.3562021000e-02     1     1     5    13
 9.3436217600e-02     1     1     6     2
-1.9585500000e-05     1     1     6     3
 3.9115000000e-06     1     1     6     4
-1.9705699000e-03     1     1     6     5
 4.0196426430e-01     1     1     6     6
 5.1505000000e-06     1     1     6     7
-7.3690000000e-07     1     1     6     8
-1.1477025000e-03     1     1     6     9
 7.9470000000e-07     1     1     6    10
-1.7025000000e-06     1     1     6    11
 8.7180700000e-05     1     1     6    12
 1.3020219000e-03     1     1     6    13
 3.3167600000e-05     1     1     7     2
 2.3814059000e-03     1     1     7     3
 6.8611347700e-02     1     1     7     4
 1.2241677000e-03     1     1     7     5
 5.1505000000e-06     1     1     7     6
 4.0527253210e-01     1     1     7     7
-1.5210000000e-07     1     1     7     8
 4.7484100000e-05     1     1     7     9
-1.1718730000e-04     1     1     7    10
-4.7270600000e-05     1     1     7    11
 4.7004449000e-03     1     1     7    12
-7.6633620000e-04     1     1     7    13
-5.2215000000e-06     1     1     8     2
 6.8580980000e-02     1     1     8     3
-2.3751754000e-03     1     1     8     4
-5.5724030000e-04     1     1     8     5
-7.3690000000e-07     1     1     8     6
-1.5210000000e-07     1     1     8     7
 4.0524871120e-01     1     1     8     8
-1.5980800000e-05     1     1     8     9
-3.5583000000e-05     1     1     8    10
-1.3448140000e-04     1     1     8    11
-7.4185996000e-03     1     1     8    12
 4.0427560000e-04     1     1     8    13
-1.0274399100e-02     1     1     9     2
-5.0100740000e-04     1     1     9     3
 1.3223114000e-03     1     1     9     4
-7.0491552200e-02     1     1     9     5
-1.1477025000e-03     1     1     9     6
 4.7484100000e-05     1     1     9     7
-1.5980800000e-05     1     1     9     8
 4.3545955720e-01     1     1     9     9
-5.5512000000e-06     1     1     9    10
 1.4930400000e-05     1     1     9    11
-8.7655000000e-06     1     1     9    12
-2.7310480000e-04     1     1     9    13
-1.2554500000e-04     1     1    10     2
-2.6970050000e-04     1     1    10     3
-7.0288460000e-04     1     1    10     4
-3.0259540000e-04     1     1    10     5
 7.9470000000e-07     1     1    10     6
-1.1718730000e-04     1     1    10     7
-3.5583000000e-05     1     1    10     8
-5.5512000000e-06     1     1    10     9
 3.8897204070e-01     1     1    10    10
 4.6000000000e-08     1     1    10    11
-2.5976300000e-05     1     1    10    12
-6.1512900000e-05     1     1    10    13
 2.8472660000e-04     1     1    11     2
-7.7138450000e-04     1     1    11     3
-2.5429390000e-04     1     1    11     4
 6.5796780000e-04     1     1    11     5
-1.7025000000e-06     1     1    11     6
-4.7270600000e-05     1     1    11     7
-1.3448140000e-04     1     1    11     8
 1.4930400000e-05     1     1    11     9
 4.6000000000e-08     1     1    11    10
 3.8898015160e-01     1     1    11    11
 9.1750400000e-05     1     1    11    12
 1.5232350000e-04     1     1    11    13
 1.5348553000e-03     1     1    12     2
-3.7379551000e-02     1     1    12     3
 2.5545047700e-02     1     1    12     4
 4.3629477000e-03     1     1    12     5
 8.7180700000e-05     1     1    12     6
 4.7004449000e-03     1     1    12     7
-7.4185996000e-03     1     1    12     8
-8.7655000000e-06     1     1    12     9
-2.5976300000e-05     1     1    12    10
 9.1750400000e-05     1     1    12    11
 4.0189574120e-01     1     1    12    12
 2.7482920000e-04     1     1    12    13
 1.8562972300e-02     1     1    13     2
 2.0990373000e-03     1     1    13     3
-4.7822007000e-03     1     1    13     4
 4.3562021000e-02     1     1    13     5
 1.3020219000e-03     1     1    13     6
-7.6633620000e-04     1     1    13     7
 4.0427560000e-04     1     1    13     8
-2.7310480000e-04     1     1    13     9
-6.1512900000e-05     1     1    13    10
 1.5232350000e-04     1     1    13    11
 2.7482920000e-04     1     1    13    12
 4.0675888140e-01     1     1    13    13
-3.1518967230e-01     1     2     2     1
-2.3655960000e-04     1     2     2     3
 6.8078890000e-04     1     2     2     4
-3.4517435900e-02     1     2     2     5
 5.8065866400e-02     1     2     2     6
 5.0614200000e-05     1     2     2     7
-1.1950000000e-07     1     2     2     8
 1.0053366400e-02     1     2     2     9
-7.1633400000e-05     1     2     2    10
 1.6310140000e-04     1     2     2    11
 8.8754300000e-04     1     2     2    12
 1.0768750900e-02     1     2     2    13
 8.2519400000e-05     1     2     3     1
 8.9653347000e-02     1     2     3     3
-4.0780000000e-07     1     2     3     4
 1.7569400000e-05     1     2     3     5
 7.0483200000e-05     1     2     3     6
 1.8758015000e-03     1     2     3     7
 5.4013607100e-02     1     2     3     8
-3.8881850000e-04     1     2     3     9
-8.3679800000e-05     1     2     3    10
-2.5725840000e-04     1     2     3    11
-1.2606345300e-02     1     2     3    12
 6.8864660000e-04     1     2     3    13
-2.3828740000e-04     1     2     4     1
-4.1140000000e-07     1     2     4     3
 8.9652965000e-02     1     2     4     4
-4.8113400000e-05     1     2     4     5
-2.4529180000e-04     1     2     4     6
 5.4019643700e-02     1     2     4     7
-1.8691886000e-03     1     2     4     8
 1.0023751000e-03     1     2     4     9
-2.3373890000e-04     1     2     4    10
-8.2935200000e-05     1     2     4    11
 8.6081617000e-03     1     2     4    12
-1.5022370000e-03     1     2     4    13
 1.2224753700e-02     1     2     5     1
 1.9255600000e-05     1     2     5     3
-5.4529700000e-05     1     2     5     4
 9.3228065200e-02     1     2     5     5
 1.0725470700e-02     1     2     5     6
 9.8797320000e-04     1     2     5     7
-4.2908190000e-04     1     2     5     8
-5.3859241300e-02     1     2     5     9
-7.7372500000e-05     1     2     5    10
 1.6411800000e-04     1     2     5    11
 1.1949343000e-03     1     2     5    12
 1.1224481100e-02     1     2     5    13
-9.3436217600e-02     1     2     6     1
 1.4368700000e-05     1     2     6     3
-5.4411900000e-05     1     2     6     4
 2.2817091000e-03     1     2     6     5
 1.0024997500e-01     1     2     6     6
 1.2762200000e-05     1     2     6     7
-1.9580000000e-07     1     2     6     8
 6.4816453000e-03     1     2     6     9
-9.1040000000e-06     1     2     6    10
 2.0833200000e-05     1     2     6    11
 1.5202820000e-04     1     2     6    12
 1.9318063000e-03     1     2     6    13
-3.3167600000e-05     1     2     7     1
 5.5817500000e-04     1     2     7     3
 1.6083577100e-02     1     2     7     4
 2.8926160000e-04     1     2     7     5
-3.6272000000e-06     1     2     7     6
 9.9847612100e-02     1     2     7     7
-4.7040000000e-07     1     2     7     8
 3.4907000000e-05     1     2     7     9
-7.4464800000e-05     1     2     7    10
-2.5542600000e-05     1     2     7    11
 2.3612028000e-03     1     2     7    12
-3.6202050000e-04     1     2     7    13
 5.2215000000e-06     1     2     8     1
 1.6081341500e-02     1     2     8     3
-5.5622400000e-04     1     2     8     4
-1.2652480000e-04     1     2     8     5
-8.4780000000e-07     1     2     8     6
-3.8830000000e-07     1     2     8     7
 9.9828860400e-02     1     2     8     8
-6.2147000000e-06     1     2     8     9
-2.1347600000e-05     1     2     8    10
-7.4326900000e-05     1     2     8    11
-3.7320842000e-03     1     2     8    12
 1.9917030000e-04     1     2     8    13
 1.0274399100e-02     1     2     9     1
-1.1223470000e-04     1     2     9     3
 2.8993940000e-04     1     2     9     4
-1.5735785600e-02     1     2     9     5
-1.6246864000e-03     1     2     9     6
 2.2122700000e-05     1     2     9     7
-3.5767000000e-06     1     2     9     8
 1.2022274500e-01     1     2     9     9
 8.9928000000e-06     1     2     9    10
-1.9682100000e-05     1     2     9    11
-1.3442360000e-04     1     2     9    12
-1.7277245000e-03     1     2     9    13
 1.2554500000e-04     1     2    10     1
-2.0528300000e-05     1     2    10     3
-5.7762000000e-05     1     2    10     4
-2.3556200000e-05     1     2    10     5
-1.5953100000e-05     1     2    10     6
-1.2512240000e-04     1     2    10     7
-3.9780400000e-05     1     2    10     8
 3.0938600000e-05     1     2    10     9
 8.6219564300e-02     1     2    10    10
 2.8180000000e-07     1     2    10    11
-2.7402600000e-05     1     2    10    12
-4.6608900000e-05     1     2    10    13
-2.8472660000e-04     1     2    11     1
-6.8167200000e-05     1     2    11     3
-2.2282500000e-05     1     2    11     4
 5.0127400000e-05     1     2    11     5
 3.6203300000e-05     1     2    11     6
-4.7090900000e-05     1     2    11     7
-1.3449100000e-04     1     2    11     8
-6.9072200000e-05     1     2    11     9
 2.9040000000e-07     1     2    11    10
 8.6224451800e-02     1     2    11    11
 8.1851900000e-05     1     2    11    12
 1.2034050000e-04     1     2    11    13
-1.5348553000e-03     1     2    12     1
-3.3434447000e-03     1     2    12     3
 2.2816009000e-03     1     2    12     4
 3.5438970000e-04     1     2    12     5
 2.2939360000e-04     1     2    12     6
 4.2969912000e-03     1     2    12     7
-6.7761727000e-03     1     2    12     8
-4.0318490000e-04     1     2    12     9
-2.8488900000e-05     1     2    12    10
 8.1532600000e-05     1     2    12    11
 9.5732105100e-02     1     2    12    12
 1.3768390000e-04     1     2    12    13
-1.8562972300e-02     1     2    13     1
 1.8560270000e-04     1     2    13     3
-4.0685950000e-04     1     2    13     4
 3.3853040000e-03     1     2    13     5
 2.8764619000e-03     1     2    13     6
-6.8906610000e-04     1     2    13     7
 3.5336390000e-04     1     2    13     8
-4.9907792000e-03     1     2    13     9
-4.6567800000e-05     1     2    13    10
 1.2066110000e-04     1     2    13    11
 1.3515200000e-04     1     2    13    12
 9.8301736300e-02     1     2    13    13
 8.2519400000e-05     1     3     2     1
 2.3655960000e-04     1     3     2     2
 3.6000000000e-09     1     3     2     4
-1.6862000000e-06     1     3     2     5
 5.6114500000e-05     1     3     2     6
 1.3176265000e-03     1     3     2     7
 3.7932265600e-02     1     3     2     8
-2.7658380000e-04     1     3     2     9
-6.3151500000e-05     1     3     2    10
-1.8909120000e-04     1     3     2    11
-9.2629006000e-03     1     3     2    12
 5.0304390000e-04     1     3     2    13
-3.4363689340e-01     1     3     3     1
-8.9653347000e-02     1     3     3     2
 6.6263950000e-04     1     3     3     4
-3.3770124700e-02     1     3     3     5
-1.5381393900e-02     1     3     3     6
 2.5747300000e-05     1     3     3     7
-1.2973060000e-04     1     3     3     8
-4.9633510000e-03     1     3     3     9
 3.7928706300e-02     1     3     3    10
-2.3482488000e-03     1     3     3    11
-2.0387180000e-03     1     3     3    12
-2.1428148000e-02     1     3     3    13
 1.3392000000e-06     1     3     4     1
 4.1140000000e-07     1     3     4     2
 2.3046450000e-04     1     3     4     4
-6.9700000000e-08     1     3     4     5
 2.2738000000e-06     1     3     4     6
-5.6574200000e-05     1     3     4     7
 1.8410270000e-04     1     3     4     8
 2.1877000000e-06     1     3     4     9
-2.0384573000e-03     1     3     4    10
-3.8361757700e-02     1     3     4    11
 1.2517667000e-03     1     3     4    12
 4.9623400000e-04     1     3     4    13
-6.6482200000e-05     1     3     5     1
-1.9255600000e-05     1     3     5     2
-6.0000000000e-09     1     3     5     4
 2.3649150000e-04     1     3     5     5
-1.0811400000e-04     1     3     5     6
-3.1282990000e-04     1     3     5     7
-8.9520137000e-03     1     3     5     8
 5.8339800000e-05     1     3     5     9
-5.3881590000e-04     1     3     5    10
-1.4031876000e-03     1     3     5    11
-3.2182501900e-02     1     3     5    12
 2.0313549000e-03     1     3     5    13
 1.9585500000e-05     1     3     6     1
-1.4368700000e-05     1     3     6     2
-5.2000000000e-09     1     3     6     4
 1.5305000000e-06     1     3     6     5
 2.2866000000e-04     1     3     6     6
 1.7095300000e-04     1     3     6     7
 4.9180427000e-03     1     3     6     8
-1.4357430000e-04     1     3     6     9
-2.0248800000e-05     1     3     6    10
-5.5959100000e-05     1     3     6    11
-3.1940265000e-03     1     3     6    12
 1.9488170000e-04     1     3     6    13
-2.3814059000e-03     1     3     7     1
-5.5817500000e-04     1     3     7     2
 2.1800000000e-07     1     3     7     4
 6.1976000000e-06     1     3     7     5
-6.3179740000e-04     1     3     7     6
 2.5718150000e-04     1     3     7     7
-6.2562000000e-06     1     3     7     8
-2.9055580000e-04     1     3     7     9
-8.9271000000e-05     1     3     7    10
-6.0088957000e-03     1     3     7    11
 1.1849360000e-04     1     3     7    12
-1.8510870000e-04     1     3     7    13
-6.8580980000e-02     1     3     8     1
-1.6081341500e-02     1     3     8     2
 5.1840000000e-07     1     3     8     4
 1.8066880000e-04     1     3     8     5
-1.8195901500e-02     1     3     8     6
-1.8233800000e-05     1     3     8     7
 2.4710420000e-04     1     3     8     8
-8.3785588000e-03     1     3     8     9
 6.4721168000e-03     1     3     8    10
-2.5263830000e-04     1     3     8    11
-6.9802730000e-04     1     3     8    12
-8.2278921000e-03     1     3     8    13
 5.0100740000e-04     1     3     9     1
 1.1223470000e-04     1     3     9     2
-8.7000000000e-09     1     3     9     4
 1.7331000000e-06     1     3     9     5
 4.9286000000e-05     1     3     9     6
-1.7541940000e-04     1     3     9     7
-5.0409727000e-03     1     3     9     8
 2.6013170000e-04     1     3     9     9
 3.4538000000e-06     1     3     9    10
 2.8598300000e-05     1     3     9    11
 2.4170463000e-03     1     3     9    12
-1.6160060000e-04     1     3     9    13
 2.6970050000e-04     1     3    10     1
 2.0528300000e-05     1     3    10     2
-5.0200000000e-08     1     3    10     4
 3.8542000000e-06     1     3    10     5
 1.6643300000e-05     1     3    10     6
 1.5629320000e-04     1     3    10     7
-5.5156868000e-03     1     3    10     8
-5.8857900000e-05     1     3    10     9
 2.4266170000e-04     1     3    10    10
 1.0076560000e-04     1     3    10    11
 3.0852142000e-03     1     3    10    12
-1.2530970000e-04     1     3    10    13
 7.7138450000e-04     1     3    11     1
 6.8167200000e-05     1     3    11     2
 4.2200000008e-08     1     3    11     4
 9.4178000000e-06     1     3    11     5
 4.9008600000e-05     1     3    11     6
 6.3712666000e-03     1     3    11     7
 6.9309000000e-05     1     3    11     8
-1.6016000000e-04     1     3    11     9
-1.2307930000e-04     1     3    11    10
 2.3592570000e-04     1     3    11    11
 2.2410856000e-03     1     3    11    12
-2.5169560000e-04     1     3    11    13
 3.7379551000e-02     1     3    12     1
 3.3434447000e-03     1     3    12     2
-3.0484000000e-06     1     3    12     4
 2.9035740000e-04     1     3    12     5
 2.2892314000e-03     1     3    12     6
-9.8047000000e-05     1     3    12     7
-1.8827100000e-05     1     3    12     8
-6.7296322000e-03     1     3    12     9
-2.9065352000e-03     1     3    12    10
-1.4309486000e-03     1     3    12    11
 2.6672440000e-04     1     3    12    12
 5.0109196000e-03     1     3    12    13
-2.0990373000e-03     1     3    13     1
-1.8560270000e-04     1     3    13     2
 5.5800000000e-08     1     3    13     4
-1.2982300000e-05     1     3    13     5
-1.3031830000e-04     1     3    13     6
-8.6078800000e-05     1     3    13     7
-3.4785760000e-04     1     3    13     8
 3.6071930000e-04     1     3    13     9
 1.2496060000e-04     1     3    13    10
 1.6882140000e-04     1     3    13    11
-4.6541117000e-03     1     3    13    12
 2.3048980000e-04     1     3    13    13
-2.3828740000e-04     1     4     2     1
-6.8078890000e-04     1     4     2     2
-3.6000000000e-09     1     4     2     3
 6.4163000000e-06     1     4     2     5
-1.9087990000e-04     1     4     2     6
 3.7936066600e-02     1     4     2     7
-1.3129646000e-03     1     4     2     8
 7.1243570000e-04     1     4     2     9
-1.7597690000e-04     1     4     2    10
-6.0652700000e-05     1     4     2    11
 6.3265608000e-03     1     4     2    12
-1.0953775000e-03     1     4     2    13
 1.3392000000e-06     1     4     3     1
 4.0780000000e-07     1     4     3     2
-6.6263950000e-04     1     4     3     3
-6.3700000000e-08     1     4     3     5
 2.2790000000e-06     1     4     3     6
-5.6792200000e-05     1     4     3     7
 1.8358430000e-04     1     4     3     8
 2.1964000000e-06     1     4     3     9
-2.0384071000e-03     1     4     3    10
-3.8361799900e-02     1     4     3    11
 1.2548151000e-03     1     4     3    12
 4.9617820000e-04     1     4     3    13
-3.4363762270e-01     1     4     4     1
-8.9652965000e-02     1     4     4     2
-2.3046450000e-04     1     4     4     3
-3.3770943600e-02     1     4     4     5
-1.5386077400e-02     1     4     4     6
 3.5890440000e-04     1     4     4     7
-1.3281900000e-05     1     4     4     8
-4.9640780000e-03     1     4     4     9
-3.7611025100e-02     1     4     4    10
 1.6896829000e-03     1     4     4    11
-2.8222568000e-03     1     4     4    12
-2.1771375000e-02     1     4     4    13
 1.8741330000e-04     1     4     5     1
 5.4529700000e-05     1     4     5     2
 6.0000000000e-09     1     4     5     3
-6.7985660000e-04     1     4     5     5
 3.1940420000e-04     1     4     5     6
-8.9151547000e-03     1     4     5     7
 3.0590870000e-04     1     4     5     8
-1.1308940000e-04     1     4     5     9
-1.3150702000e-03     1     4     5    10
 7.8373300000e-05     1     4     5    11
 2.1968042600e-02     1     4     5    12
-4.8450571000e-03     1     4     5    13
-3.9115000000e-06     1     4     6     1
 5.4411900000e-05     1     4     6     2
 5.2000000000e-09     1     4     6     3
-5.6706000000e-06     1     4     6     5
-6.4391340000e-04     1     4     6     6
 4.9223780000e-03     1     4     6     7
-1.7040250000e-04     1     4     6     8
 3.9504120000e-04     1     4     6     9
-5.0342900000e-05     1     4     6    10
-1.7505900000e-05     1     4     6    11
 2.1771992000e-03     1     4     6    12
-4.2245660000e-04     1     4     6    13
-6.8611347700e-02     1     4     7     1
-1.6083577100e-02     1     4     7     2
-2.1800000000e-07     1     4     7     3
 1.8042190000e-04     1     4     7     5
-1.8194975500e-02     1     4     7     6
-7.3966780000e-04     1     4     7     7
-2.5501000000e-06     1     4     7     8
-8.3674408000e-03     1     4     7     9
-6.3735448000e-03     1     4     7    10
 2.9218000000e-05     1     4     7    11
-8.2895440000e-04     1     4     7    12
-8.3068916000e-03     1     4     7    13
 2.3751754000e-03     1     4     8     1
 5.5622400000e-04     1     4     8     2
-5.1840000000e-07     1     4     8     3
-6.1163000000e-06     1     4     8     5
 6.2962190000e-04     1     4     8     6
-3.0062000000e-06     1     4     8     7
-7.4194120000e-04     1     4     8     8
 2.8964460000e-04     1     4     8     9
-8.9821900000e-05     1     4     8    10
-5.9936524000e-03     1     4     8    11
 2.8423300000e-04     1     4     8    12
 3.8776130000e-04     1     4     8    13
-1.3223114000e-03     1     4     9     1
-2.8993940000e-04     1     4     9     2
 8.7000000000e-09     1     4     9     3
-5.1029000000e-06     1     4     9     5
-1.0934370000e-04     1     4     9     6
-5.0382757000e-03     1     4     9     7
 1.7377780000e-04     1     4     9     8
-7.2250710000e-04     1     4     9     9
 1.3491500000e-05     1     4     9    10
 1.3762600000e-05     1     4     9    11
-1.6510937000e-03     1     4     9    12
 3.9537290000e-04     1     4     9    13
 7.0288460000e-04     1     4    10     1
 5.7762000000e-05     1     4    10     2
 5.0200000000e-08     1     4    10     3
 9.6064000000e-06     1     4    10     5
 4.3931300000e-05     1     4    10     6
 5.5124684000e-03     1     4    10     7
 1.5396320000e-04     1     4    10     8
-1.6118010000e-04     1     4    10     9
-7.0272150000e-04     1     4    10    10
-4.5182000000e-06     1     4    10    11
 1.7791108000e-03     1     4    10    12
-1.7686140000e-04     1     4    10    13
 2.5429390000e-04     1     4    11     1
 2.2282500000e-05     1     4    11     2
-4.2200000008e-08     1     4    11     3
 1.5566000000e-06     1     4    11     5
 1.7364600000e-05     1     4    11     6
-5.9633500000e-05     1     4    11     7
 6.3646105000e-03     1     4    11     8
-5.2281800000e-05     1     4    11     9
 8.9250000000e-07     1     4    11    10
-7.1830190000e-04     1     4    11    11
-3.6304696000e-03     1     4    11    12
 2.1601930000e-04     1     4    11    13
-2.5545047700e-02     1     4    12     1
-2.2816009000e-03     1     4    12     2
 3.0484000000e-06     1     4    12     3
-1.9654160000e-04     1     4    12     5
-1.5618088000e-03     1     4    12     6
 4.0597900000e-05     1     4    12     7
-1.4189220000e-04     1     4    12     8
 4.6047319000e-03     1     4    12     9
-1.7780168000e-03     1     4    12    10
 2.4613627000e-03     1     4    12    11
-7.2692560000e-04     1     4    12    12
-3.5127409000e-03     1     4    12    13
 4.7822007000e-03     1     4    13     1
 4.0685950000e-04     1     4    13     2
-5.5800000000e-08     1     4    13     3
 2.7637400000e-05     1     4    13     5
 2.9399530000e-04     1     4    13     6
-2.9801410000e-04     1     4    13     7
-6.3573900000e-05     1     4    13     8
-8.4310380000e-04     1     4    13     9
 2.3014750000e-04     1     4    13    10
-1.5268630000e-04     1     4    13    11
 3.2671027000e-03     1     4    13    12
-6.4606930000e-04     1     4    13    13
 1.2224753700e-02     1     5     2     1
 3.4517435900e-02     1     5     2     2
 1.6862000000e-06     1     5     2     3
-6.4163000000e-06     1     5     2     4
 8.4437616000e-03     1     5     2     6
 6.9871160000e-04     1     5     2     7
-3.0255710000e-04     1     5     2     8
-3.8123455700e-02     1     5     2     9
-5.3816300000e-05     1     5     2    10
 1.1399060000e-04     1     5     2    11
 8.4054460000e-04     1     5     2    12
 7.8391771000e-03     1     5     2    13
-6.6482200000e-05     1     5     3     1
-1.7569400000e-05     1     5     3     2
 3.3770124700e-02     1     5     3     3
 6.3700000000e-08     1     5     3     4
-1.0964450000e-04     1     5     3     6
-3.1902750000e-04     1     5     3     7
-9.1326825000e-03     1     5     3     8
 5.6606700000e-05     1     5     3     9
-5.4267010000e-04     1     5     3    10
-1.4126054000e-03     1     5     3    11
-3.2472859300e-02     1     5     3    12
 2.0443372000e-03     1     5     3    13
 1.8741330000e-04     1     5     4     1
 4.8113400000e-05     1     5     4     2
 6.9700000000e-08     1     5     4     3
 3.3770943600e-02     1     5     4     4
 3.2507480000e-04     1     5     4     6
-9.0955766000e-03     1     5     4     7
 3.1202500000e-04     1     5     4     8
-1.0798650000e-04     1     5     4     9
-1.3246766000e-03     1     5     4    10
 7.6816700000e-05     1     5     4    11
 2.2164584200e-02     1     5     4    12
-4.8726945000e-03     1     5     4    13
-3.5549393760e-01     1     5     5     1
-9.3228065200e-02     1     5     5     2
-2.3649150000e-04     1     5     5     3
 6.7985660000e-04     1     5     5     4
-3.1551527600e-02     1     5     5     6
-4.0708920000e-04     1     5     5     7
 1.2648660000e-04     1     5     5     8
 1.9247583000e-03     1     5     5     9
-3.3993720000e-04     1     5     5    10
 7.0997660000e-04     1     5     5    11
 5.1450274000e-03     1     5     5    12
 4.6288132200e-02     1     5     5    13
 1.9705699000e-03     1     5     6     1
-2.2817091000e-03     1     5     6     2
-1.5305000000e-06     1     5     6     3
 5.6706000000e-06     1     5     6     4
 3.2977921200e-02     1     5     6     6
 6.3381500000e-05     1     5     6     7
-3.8979700000e-05     1     5     6     8
-1.9887422500e-02     1     5     6     9
-2.3067800000e-05     1     5     6    10
 5.0132700000e-05     1     5     6    11
 3.8279800000e-04     1     5     6    12
 4.0174117000e-03     1     5     6    13
-1.2241677000e-03     1     5     7     1
-2.8926160000e-04     1     5     7     2
-6.1976000000e-06     1     5     7     3
-1.8042190000e-04     1     5     7     4
-3.3763030000e-04     1     5     7     6
 3.7414831400e-02     1     5     7     7
-8.0100000000e-08     1     5     7     8
-1.6813090000e-04     1     5     7     9
-2.5420020000e-04     1     5     7    10
-1.2934800000e-05     1     5     7    11
 5.6217705000e-03     1     5     7    12
-1.1264364000e-03     1     5     7    13
 5.5724030000e-04     1     5     8     1
 1.2652480000e-04     1     5     8     2
-1.8066880000e-04     1     5     8     3
 6.1163000000e-06     1     5     8     4
 1.4129770000e-04     1     5     8     6
 5.2100000000e-07     1     5     8     7
 3.7415994600e-02     1     5     8     8
 5.6787500000e-05     1     5     8     9
-9.2549900000e-05     1     5     8    10
-2.7247230000e-04     1     5     8    11
-8.8579916000e-03     1     5     8    12
 5.2797180000e-04     1     5     8    13
 7.0491552200e-02     1     5     9     1
 1.5735785600e-02     1     5     9     2
-1.7331000000e-06     1     5     9     3
 5.1029000000e-06     1     5     9     4
 6.6264591000e-03     1     5     9     6
-8.2899800000e-05     1     5     9     7
 3.1915500000e-05     1     5     9     8
 3.6289890800e-02     1     5     9     9
 3.2150000000e-05     1     5     9    10
-7.0602400000e-05     1     5     9    11
-5.3006020000e-04     1     5     9    12
-5.9274228000e-03     1     5     9    13
 3.0259540000e-04     1     5    10     1
 2.3556200000e-05     1     5    10     2
-3.8542000000e-06     1     5    10     3
-9.6064000000e-06     1     5    10     4
 2.8481900000e-05     1     5    10     6
 2.0870780000e-04     1     5    10     7
 7.6219400000e-05     1     5    10     8
-4.3782100000e-05     1     5    10     9
 3.5139804300e-02     1     5    10    10
-1.1408000000e-06     1     5    10    11
 2.0208100000e-05     1     5    10    12
-3.6111000000e-06     1     5    10    13
-6.5796780000e-04     1     5    11     1
-5.0127400000e-05     1     5    11     2
-9.4178000000e-06     1     5    11     3
-1.5566000000e-06     1     5    11     4
-6.2329800000e-05     1     5    11     6
-1.3766000000e-05     1     5    11     7
 2.1635920000e-04     1     5    11     8
 9.5071100000e-05     1     5    11     9
 6.2720000000e-07     1     5    11    10
 3.5140207700e-02     1     5    11    11
-1.0471910000e-04     1     5    11    12
 1.0600000000e-07     1     5    11    13
-4.3629477000e-03     1     5    12     1
-3.5438970000e-04     1     5    12     2
-2.9035740000e-04     1     5    12     3
 1.9654160000e-04     1     5    12     4
-3.6634880000e-04     1     5    12     6
-2.3952707000e-03     1     5    12     7
 3.7707345000e-03     1     5    12     8
 5.6934730000e-04     1     5    12     9
-7.9670000000e-06     1     5    12    10
 4.2189000000e-05     1     5    12    11
 3.5092065800e-02     1     5    12    12
-2.3313000000e-06     1     5    12    13
-4.3562021000e-02     1     5    13     1
-3.3853040000e-03     1     5    13     2
 1.2982300000e-05     1     5    13     3
-2.7637400000e-05     1     5    13     4