&FCI NORB= 13,NELEC=  2,MS2=0,
 ORBSYM=1,1,1,1,1,1,1,1,1,1,1,1,1
 ISYM=1,
&END
 3.2010435690e-01     1     1     2     2
 6.4141000000e-06     1     1     2     3
 2.9131300000e-05     1     1     2     4
 1.1567371600e-02     1     1     2     5
-9.5584864700e-02     1     1     2     6
 5.9330000000e-06     1     1     2     7
 8.8857000000e-05     1     1     2     8
 1.3215817300e-02     1     1     2     9
-1.9507940000e-04     1     1     2    10
-1.6644130000e-04     1     1     2    11
-9.6854170000e-04     1     1     2    12
-1.3570137000e-03     1     1     2    13
 6.4141000000e-06     1     1     3     2
 3.4936035550e-01     1     1     3     3
 1.8700000000e-08     1     1     3     4
 6.9851000000e-06     1     1     3     5
 3.3655100000e-05     1     1     3     6
-5.5810343700e-02     1     1     3     7
 4.4320888500e-02     1     1     3     8
-6.0815400000e-05     1     1     3     9
-1.2663410000e-04     1     1     3    10
 4.7257960000e-04     1     1     3    11
-1.0508167000e-03     1     1     3    12
-4.3560846000e-02     1     1     3    13
 2.9131300000e-05     1     1     4     2
 1.8700000000e-08     1     1     4     3
 3.4936342040e-01     1     1     4     4
 3.2701400000e-05     1     1     4     5
-6.3742900000e-05     1     1     4     6
-4.4319598700e-02     1     1     4     7
-5.5806061000e-02     1     1     4     8
-1.5681040000e-04     1     1     4     9
-9.7983700000e-05     1     1     4    10
-4.6873120000e-04     1     1     4    11
-4.3617340500e-02     1     1     4    12
 1.1982444000e-03     1     1     4    13
 1.1567371600e-02     1     1     5     2
 6.9851000000e-06     1     1     5     3
 3.2701400000e-05     1     1     5     4
 3.6578060550e-01     1     1     5     5
-5.8810951000e-03     1     1     5     6
 1.2257380000e-04     1     1     5     7
 8.5790700000e-05     1     1     5     8
-7.7750559500e-02     1     1     5     9
 3.1643130000e-04     1     1     5    10
 2.5337180000e-04     1     1     5    11
 1.5692518000e-03     1     1     5    12
 2.0894738000e-03     1     1     5    13
-9.5584864700e-02     1     1     6     2
 3.3655100000e-05     1     1     6     3
-6.3742900000e-05     1     1     6     4
-5.8810951000e-03     1     1     6     5
 4.1184915200e-01     1     1     6     6
 3.0000000000e-09     1     1     6     7
-7.4362000000e-06     1     1     6     8
-3.8658397000e-03     1     1     6     9
-2.1451300000e-05     1     1     6    10
-1.9884600000e-05     1     1     6    11
-4.5788100000e-05     1     1     6    12
-7.4599500000e-05     1     1     6    13
 5.9330000000e-06     1     1     7     2
-5.5810343700e-02     1     1     7     3
-4.4319598700e-02     1     1     7     4
 1.2257380000e-04     1     1     7     5
 3.0000000000e-09     1     1     7     6
 4.1519543680e-01     1     1     7     7
-2.4980000000e-07     1     1     7     8
 5.9836000000e-06     1     1     7     9
 2.4124800000e-05     1     1     7    10
-1.1582400000e-05     1     1     7    11
 4.7936226000e-03     1     1     7    12
 5.7219326000e-03     1     1     7    13
 8.8857000000e-05     1     1     8     2
 4.4320888500e-02     1     1     8     3
-5.5806061000e-02     1     1     8     4
 8.5790700000e-05     1     1     8     5
-7.4362000000e-06     1     1     8     6
-2.4980000000e-07     1     1     8     7
 4.1519461620e-01     1     1     8     8
 4.6905000000e-06     1     1     8     9
-1.7144000000e-06     1     1     8    10
 1.0233420000e-04     1     1     8    11
 5.7468240000e-03     1     1     8    12
-4.8057224000e-03     1     1     8    13
 1.3215817300e-02     1     1     9     2
-6.0815400000e-05     1     1     9     3
-1.5681040000e-04     1     1     9     4
-7.7750559500e-02     1     1     9     5
-3.8658397000e-03     1     1     9     6
 5.9836000000e-06     1     1     9     7
 4.6905000000e-06     1     1     9     8
 4.4406998710e-01     1     1     9     9
 4.1020500000e-05     1     1     9    10
 4.6364100000e-05     1     1     9    11
 2.5520290000e-04     1     1     9    12
 3.5328000000e-04     1     1     9    13
-1.9507940000e-04     1     1    10     2
-1.2663410000e-04     1     1    10     3
-9.7983700000e-05     1     1    10     4
 3.1643130000e-04     1     1    10     5
-2.1451300000e-05     1     1    10     6
 2.4124800000e-05     1     1    10     7
-1.7144000000e-06     1     1    10     8
 4.1020500000e-05     1     1    10     9
 3.9585077320e-01     1     1    10    10
 9.2050000000e-07     1     1    10    11
 2.2788100000e-05     1     1    10    12
 2.2046200000e-05     1     1    10    13
-1.6644130000e-04     1     1    11     2
 4.7257960000e-04     1     1    11     3
-4.6873120000e-04     1     1    11     4
 2.5337180000e-04     1     1    11     5
-1.9884600000e-05     1     1    11     6
-1.1582400000e-05     1     1    11     7
 1.0233420000e-04     1     1    11     8
 4.6364100000e-05     1     1    11     9
 9.2050000000e-07     1     1    11    10
 3.9585539620e-01     1     1    11    11
 6.4668000000e-05     1     1    11    12
-5.2802500000e-05     1     1    11    13
-9.6854170000e-04     1     1    12     2
-1.0508167000e-03     1     1    12     3
-4.3617340500e-02     1     1    12     4
 1.5692518000e-03     1     1    12     5
-4.5788100000e-05     1     1    12     6
 4.7936226000e-03     1     1    12     7
 5.7468240000e-03     1     1    12     8
 2.5520290000e-04     1     1    12     9
 2.2788100000e-05     1     1    12    10
 6.4668000000e-05     1     1    12    11
 4.0819082810e-01     1     1    12    12
 2.2265900000e-05     1     1    12    13
-1.3570137000e-03     1     1    13     2
-4.3560846000e-02     1     1    13     3
 1.1982444000e-03     1     1    13     4
 2.0894738000e-03     1     1    13     5
-7.4599500000e-05     1     1    13     6
 5.7219326000e-03     1     1    13     7
-4.8057224000e-03     1     1    13     8
 3.5328000000e-04     1     1    13     9
 2.2046200000e-05     1     1    13    10
-5.2802500000e-05     1     1    13    11
 2.2265900000e-05     1     1    13    12
 4.0821253110e-01     1     1    13    13
-3.2010435690e-01     1     2     2     1
 1.6058000000e-05     1     2     2     3
 7.4689700000e-05     1     2     2     4
 2.9072260900e-02     1     2     2     5
-5.9089146000e-02     1     2     2     6
-7.4730000000e-07     1     2     2     7
 4.8138500000e-05     1     2     2     8
-4.7665418000e-03     1     2     2     9
-1.2697350000e-04     1     2     2    10
-1.1229700000e-04     1     2     2    11
-6.7235440000e-04     1     2     2    12
-9.3674620000e-04     1     2     2    13
-6.4141000000e-06     1     2     3     1
 9.3364317800e-02     1     2     3     3
 4.3000000000e-09     1     2     3     4
 1.2943000000e-06     1     2     3     5
 3.1819800000e-05     1     2     3     6
-4.2383611300e-02     1     2     3     7
 3.3658726600e-02     1     2     3     8
-4.0798900000e-05     1     2     3     9
-4.7994500000e-05     1     2     3    10
 1.7691220000e-04     1     2     3    11
-3.9864960000e-04     1     2     3    12
-1.6528244700e-02     1     2     3    13
-2.9131300000e-05     1     2     4     1
 4.1000000000e-09     1     2     4     3
 9.3365491000e-02     1     2     4     4
 5.9845000000e-06     1     2     4     5
-1.9822100000e-05     1     2     4     6
-3.3658120800e-02     1     2     4     7
-4.2381913200e-02     1     2     4     8
-1.1133230000e-04     1     2     4     9
-3.5560700000e-05     1     2     4    10
-1.7562780000e-04     1     2     4    11
-1.6552493000e-02     1     2     4    12
 4.5392310000e-04     1     2     4    13
-1.1567371600e-02     1     2     5     1
 1.5093000000e-06     1     2     5     3
 7.2032000000e-06     1     2     5     4
 9.7454038700e-02     1     2     5     5
 6.3954301000e-03     1     2     5     6
 9.5765100000e-05     1     2     5     7
 5.7862400000e-05     1     2     5     8
-5.5788238500e-02     1     2     5     9
 6.3898100000e-05     1     2     5    10
 3.9545300000e-05     1     2     5    11
 2.5640430000e-04     1     2     5    12
 3.2575900000e-04     1     2     5    13
 9.5584864700e-02     1     2     6     1
 8.6233000000e-06     1     2     6     3
-7.1899000000e-06     1     2     6     4
 1.2639706000e-03     1     2     6     5
 1.0498272960e-01     1     2     6     6
 9.2760000000e-07     1     2     6     7
-4.6527000000e-06     1     2     6     8
 3.4719494000e-03     1     2     6     9
 7.6777000000e-06     1     2     6    10
 7.4192000000e-06     1     2     6    11
 8.3216800000e-05     1     2     6    12
 1.0895050000e-04     1     2     6    13
-5.9330000000e-06     1     2     7     1
-1.1749027600e-02     1     2     7     3
-9.3287988000e-03     1     2     7     4
 2.5787800000e-05     1     2     7     5
-1.4564000000e-06     1     2     7     6
 1.0488705970e-01     1     2     7     7
-7.0640000000e-07     1     2     7     8
 4.1757000000e-06     1     2     7     9
 1.4597100000e-05     1     2     7    10
-7.4346000000e-06     1     2     7    11
 2.6118385000e-03     1     2     7    12
 3.1159522000e-03     1     2     7    13
-8.8857000000e-05     1     2     8     1
 9.3292586000e-03     1     2     8     3
-1.1748227800e-02     1     2     8     4
 1.5886300000e-05     1     2     8     5
-8.2080000000e-06     1     2     8     6
 1.4380000000e-07     1     2     8     7
 1.0488634990e-01     1     2     8     8
-6.1000000000e-07     1     2     8     9
-6.3070000000e-07     1     2     8    10
 5.9886400000e-05     1     2     8    11
 3.1305564000e-03     1     2     8    12
-2.6177250000e-03     1     2     8    13
-1.3215817300e-02     1     2     9     1
-1.1146300000e-05     1     2     9     3
-3.1354900000e-05     1     2     9     4
-1.5638496500e-02     1     2     9     5
-2.9790100000e-03     1     2     9     6
 3.5563000000e-06     1     2     9     7
 4.1315000000e-06     1     2     9     8
 1.2556375400e-01     1     2     9     9
 1.3564800000e-05     1     2     9    10
 2.0467100000e-05     1     2     9    11
 1.2607510000e-04     1     2     9    12
 1.7091120000e-04     1     2     9    13
 1.9507940000e-04     1     2    10     1
-1.1694700000e-05     1     2    10     3
-8.2890000000e-06     1     2    10     4
 1.9375800000e-05     1     2    10     5
 5.4432000000e-06     1     2    10     6
 2.4234100000e-05     1     2    10     7
-7.9430000000e-07     1     2    10     8
-1.1442500000e-05     1     2    10     9
 8.9537970400e-02     1     2    10    10
 6.5080000000e-07     1     2    10    11
 1.9742200000e-05     1     2    10    12
 1.8677100000e-05     1     2    10    13
 1.6644130000e-04     1     2    11     1
 4.3068100000e-05     1     2    11     3
-4.3096600000e-05     1     2    11     4
 1.2358500000e-05     1     2    11     5
 3.6704000000e-06     1     2    11     6
-1.1846700000e-05     1     2    11     7
 1.0070370000e-04     1     2    11     8
-1.3360000000e-06     1     2    11     9
 6.5730000000e-07     1     2    11    10
 8.9540856800e-02     1     2    11    11
 5.7927600000e-05     1     2    11    12
-5.0742800000e-05     1     2    11    13
 9.6854170000e-04     1     2    12     1
-9.7020600000e-05     1     2    12     3
-4.0317901000e-03     1     2    12     4
 7.6044500000e-05     1     2    12     5
 5.2196200000e-05     1     2    12     6
 4.3319814000e-03     1     2    12     7
 5.1922306000e-03     1     2    12     8
-4.2994000000e-06     1     2    12     9
 1.9454600000e-05     1     2    12    10
 5.8946900000e-05     1     2    12    11
 9.8495898900e-02     1     2    12    12
 1.0500000000e-05     1     2    12    13
 1.3570137000e-03     1     2    13     1
-4.0260733000e-03     1     2    13     3
 1.1059190000e-04     1     2    13     4
 9.8614500000e-05     1     2    13     5
 6.4555000000e-05     1     2    13     6
 5.1700378000e-03     1     2    13     7
-4.3429416000e-03     1     2    13     8
-9.2462000000e-06     1     2    13     9
 1.9390700000e-05     1     2    13    10
-5.2199400000e-05     1     2    13    11
 1.0534100000e-05     1     2    13    12
 9.8506254900e-02     1     2    13    13
-6.4141000000e-06     1     3     2     1
-1.6058000000e-05     1     3     2     2
 2.0000000000e-10     1     3     2     4
-2.1500000000e-07     1     3     2     5
 2.3196500000e-05     1     3     2     6
-3.0634583700e-02     1     3     2     7
 2.4329468000e-02     1     3     2     8
-2.9652600000e-05     1     3     2     9
-3.6299800000e-05     1     3     2    10
 1.3384410000e-04     1     3     2    11
-3.0162900000e-04     1     3     2    12
-1.2502171400e-02     1     3     2    13
-3.4936035550e-01     1     3     3     1
-9.3364317800e-02     1     3     3     2
 7.1179700000e-05     1     3     3     4
 2.7868837200e-02     1     3     3     5
 1.5718178300e-02     1     3     3     6
-1.4971000000e-05     1     3     3     7
-9.2206000000e-06     1     3     3     8
 8.2878710000e-04     1     3     3     9
 1.6641200000e-02     1     3     3    10
-3.4759146500e-02     1     3     3    11
 1.4144320000e-03     1     3     3    12
 1.1230644000e-03     1     3     3    13
-1.8700000000e-08     1     3     4     1
-4.1000000000e-09     1     3     4     2
-1.5195900000e-05     1     3     4     4
-1.1000000000e-08     1     3     4     5
 1.3830000000e-07     1     3     4     6
-2.5862900000e-05     1     3     4     7
 1.4809300000e-05     1     3     4     8
 1.5223600000e-05     1     3     4     9
 3.5489142500e-02     1     3     4    10
 1.6688497200e-02     1     3     4    11
-2.5916850000e-04     1     3     4    12
 1.5532080000e-04     1     3     4    13
-6.9851000000e-06     1     3     5     1
-1.5093000000e-06     1     3     5     2
 2.0000000000e-10     1     3     5     4
-1.5956800000e-05     1     3     5     5
 1.6344900000e-05     1     3     5     6
-8.4369382000e-03     1     3     5     7
 6.7019286000e-03     1     3     5     8
 8.3821000000e-06     1     3     5     9
 9.9974000000e-06     1     3     5    10
-4.4890100000e-04     1     3     5    11
 9.5511860000e-04     1     3     5    12
 3.9589848900e-02     1     3     5    13
-3.3655100000e-05     1     3     6     1
-8.6233000000e-06     1     3     6     2
-3.0000000000e-10     1     3     6     4
-4.6030000000e-07     1     3     6     5
-6.4525000000e-06     1     3     6     6
 4.2654982000e-03     1     3     6     7
-3.3882491000e-03     1     3     6     8
 1.9506500000e-05     1     3     6     9
 6.4795000000e-06     1     3     6    10
-4.0467500000e-05     1     3     6    11
 8.9952600000e-05     1     3     6    12
 3.7190068000e-03     1     3     6    13
 5.5810343700e-02     1     3     7     1
 1.1749027600e-02     1     3     7     2
 2.5610000000e-07     1     3     7     4
 3.5804710000e-04     1     3     7     5
-1.4260228200e-02     1     3     7     6
-1.8936000000e-05     1     3     7     7
 1.0541800000e-05     1     3     7     8
-6.2047830000e-03     1     3     7     9
-5.7183342000e-03     1     3     7    10
 3.0967699000e-03     1     3     7    11
-4.2246430000e-04     1     3     7    12
-4.8348460000e-04     1     3     7    13
-4.4320888500e-02     1     3     8     1
-9.3292586000e-03     1     3     8     2
-3.2220000000e-07     1     3     8     4
-2.8395200000e-04     1     3     8     5
 1.1324431300e-02     1     3     8     6
-4.7790000000e-06     1     3     8     7
-2.0804600000e-05     1     3     8     8
 4.9236902000e-03     1     3     8     9
-2.4840623000e-03     1     3     8    10
-5.7941793000e-03     1     3     8    11
 3.9631570000e-04     1     3     8    12
 3.6030100000e-04     1     3     8    13
 6.0815400000e-05     1     3     9     1
 1.1146300000e-05     1     3     9     2
 3.0000000000e-10     1     3     9     4
-2.2730000000e-07     1     3     9     5
-2.5426000000e-06     1     3     9     6
-4.3987833000e-03     1     3     9     7
 3.4955941000e-03     1     3     9     8
-1.5415100000e-05     1     3     9     9
-4.1679000000e-06     1     3     9    10
 1.9375200000e-05     1     3     9    11
-6.7536800000e-05     1     3     9    12
-2.8409464000e-03     1     3     9    13
 1.2663410000e-04     1     3    10     1
 1.1694700000e-05     1     3    10     2
-1.5940000000e-07     1     3    10     4
 1.9510000000e-07     1     3    10     5
-6.8784000000e-06     1     3    10     6
 5.9828464000e-03     1     3    10     7
 3.4504209000e-03     1     3    10     8
 2.7624900000e-05     1     3    10     9
-1.4012700000e-05     1     3    10    10
 2.7590400000e-05     1     3    10    11
 3.6766262000e-03     1     3    10    12
 1.3592185000e-03     1     3    10    13
-4.7257960000e-04     1     3    11     1
-4.3068100000e-05     1     3    11     2
 1.5880000000e-07     1     3    11     4
 8.0660000000e-07     1     3    11     5
 3.9586500000e-05     1     3    11     6
-2.3261116000e-03     1     3    11     7
 5.6637358000e-03     1     3    11     8
-1.2464830000e-04     1     3    11     9
-1.7765900000e-05     1     3    11    10
-1.1135500000e-05     1     3    11    11
 1.6459606000e-03     1     3    11    12
-2.9749854000e-03     1     3    11    13
 1.0508167000e-03     1     3    12     1
 9.7020600000e-05     1     3    12     2
-1.7510000000e-07     1     3    12     4
 1.4365000000e-06     1     3    12     5
-7.1257500000e-05     1     3    12     6
-4.3725400000e-05     1     3    12     7
-1.7520300000e-05     1     3    12     8
 2.4752500000e-04     1     3    12     9
-2.5412624000e-03     1     3    12    10
-1.1130171000e-03     1     3    12    11
-1.6697300000e-05     1     3    12    12
 2.8996310000e-04     1     3    12    13
 4.3560846000e-02     1     3    13     1
 4.0260733000e-03     1     3    13     2
 5.2060000000e-07     1     3    13     4
 4.8941300000e-05     1     3    13     5
-2.9553331000e-03     1     3    13     6
-9.3536600000e-05     1     3    13     7
 9.4415000000e-05     1     3    13     8
 1.0316987800e-02     1     3    13     9
-1.3187320000e-03     1     3    13    10
 2.8870116000e-03     1     3    13    11
-1.9082670000e-04     1     3    13    12
 1.0382980000e-04     1     3    13    13
-2.9131300000e-05     1     4     2     1
-7.4689700000e-05     1     4     2     2
-2.0000000000e-10     1     4     2     3
-1.2187000000e-06     1     4     2     5
-1.2632200000e-05     1     4     2     6
-2.4329322000e-02     1     4     2     7
-3.0633685400e-02     1     4     2     8
-7.9977400000e-05     1     4     2     9
-2.7271700000e-05     1     4     2    10
-1.3253120000e-04     1     4     2    11
-1.2520702900e-02     1     4     2    12
 3.4333120000e-04     1     4     2    13
-1.8700000000e-08     1     4     3     1
-4.3000000000e-09     1     4     3     2
-7.1179700000e-05     1     4     3     3
-1.1200000000e-08     1     4     3     5
 1.3860000000e-07     1     4     3     6
-2.6119000000e-05     1     4     3     7
 1.5131500000e-05     1     4     3     8
 1.5223300000e-05     1     4     3     9
 3.5489301900e-02     1     4     3    10
 1.6688338400e-02     1     4     3    11
-2.5899340000e-04     1     4     3    12
 1.5480020000e-04     1     4     3    13
-3.4936342040e-01     1     4     4     1
-9.3365491000e-02     1     4     4     2
 1.5195900000e-05     1     4     4     3
 2.7868786200e-02     1     4     4     5
 1.5719056900e-02     1     4     4     6
-3.9113500000e-05     1     4     4     7
-5.8072100000e-05     1     4     4     8
 8.1938750000e-04     1     4     4     9
-1.6229630500e-02     1     4     4    10
 3.5120661500e-02     1     4     4    11
 9.4037650000e-04     1     4     4    12
 1.9258788000e-03     1     4     4    13
-3.2701400000e-05     1     4     5     1
-7.2032000000e-06     1     4     5     2
-2.0000000000e-10     1     4     5     3
-7.4539900000e-05     1     4     5     5
 3.7365600000e-05     1     4     5     6
-6.7027257000e-03     1     4     5     7
-8.4404492000e-03     1     4     5     8
 3.2498000000e-06     1     4     5     9
 1.1207110000e-04     1     4     5    10
 3.2160190000e-04     1     4     5    11
 3.9631286600e-02     1     4     5    12
-1.0965951000e-03     1     4     5    13
 6.3742900000e-05     1     4     6     1
 7.1899000000e-06     1     4     6     2
 3.0000000000e-10     1     4     6     3
-6.6150000000e-07     1     4     6     5
-8.1780600000e-05     1     4     6     6
 3.3885424000e-03     1     4     6     7
 4.2655690000e-03     1     4     6     8
 4.4395300000e-05     1     4     6     9
 1.2303500000e-05     1     4     6    10
 3.1254800000e-05     1     4     6    11
 3.7238202000e-03     1     4     6    12
-1.0263130000e-04     1     4     6    13
 4.4319598700e-02     1     4     7     1
 9.3287988000e-03     1     4     7     2
-2.5610000000e-07     1     4     7     3
 2.8392480000e-04     1     4     7     5
-1.1323960300e-02     1     4     7     6
-8.1015200000e-05     1     4     7     7
 8.6506000000e-06     1     4     7     8
-4.9276954000e-03     1     4     7     9
-2.5914091000e-03     1     4     7    10
-5.8897444000e-03     1     4     7    11
-2.4316500000e-04     1     4     7    12
-5.2267780000e-04     1     4     7    13
 5.5806061000e-02     1     4     8     1
 1.1748227800e-02     1     4     8     2
 3.2220000000e-07     1     4     8     3
 3.5804890000e-04     1     4     8     5
-1.4259473800e-02     1     4     8     6
-2.6470000000e-06     1     4     8     7
-7.3391100000e-05     1     4     8     8
-6.2002442000e-03     1     4     8     9
 5.5844687000e-03     1     4     8    10
-3.2163726000e-03     1     4     8    11
-3.9259310000e-04     1     4     8    12
-5.9660180000e-04     1     4     8    13
 1.5681040000e-04     1     4     9     1
 3.1354900000e-05     1     4     9     2
-3.0000000000e-10     1     4     9     3
-1.2603000000e-06     1     4     9     5
-1.4195000000e-05     1     4     9     6
-3.4929223000e-03     1     4     9     7
-4.4022100000e-03     1     4     9     8
-6.9072800000e-05     1     4     9     9
-4.5734000000e-06     1     4     9    10
-1.7417200000e-05     1     4     9    11
-2.8424115000e-03     1     4     9    12
 8.0298200000e-05     1     4     9    13
 9.7983700000e-05     1     4    10     1
 8.2890000000e-06     1     4    10     2
 1.5940000000e-07     1     4    10     3
-2.9270000000e-07     1     4    10     5
-1.1359100000e-05     1     4    10     6
 3.4456299000e-03     1     4    10     7
-5.9891394000e-03     1     4    10     8
 3.0954400000e-05     1     4    10     9
-7.4699600000e-05     1     4    10    10
-5.9288500000e-05     1     4    10    11
-1.2568425000e-03     1     4    10    12
 3.6727228000e-03     1     4    10    13
 4.6873120000e-04     1     4    11     1
 4.3096600000e-05     1     4    11     2
-1.5880000000e-07     1     4    11     3
-1.8260000000e-07     1     4    11     5
-3.3121800000e-05     1     4    11     6
 5.6575613000e-03     1     4    11     7
 2.3184096000e-03     1     4    11     8
 1.1499760000e-04     1     4    11     9
 5.5213200000e-05     1     4    11    10
-8.2341200000e-05     1     4    11    11
 3.0749067000e-03     1     4    11    12
 1.6253625000e-03     1     4    11    13
 4.3617340500e-02     1     4    12     1
 4.0317901000e-03     1     4    12     2
 1.7510000000e-07     1     4    12     3
 4.8716300000e-05     1     4    12     5
-2.9598855000e-03     1     4    12     6
-8.7155300000e-05     1     4    12     7
-3.5391000000e-05     1     4    12     8
 1.0330704400e-02     1     4    12     9
 1.2669677000e-03     1     4    12    10
-2.9363802000e-03     1     4    12    11
 6.9309000000e-06     1     4    12    12
-3.1697990000e-04     1     4    12    13
-1.1982444000e-03     1     4    13     1
-1.1059190000e-04     1     4    13     2
-5.2060000000e-07     1     4    13     3
-1.6407000000e-06     1     4    13     5
 8.1659000000e-05     1     4    13     6
-6.0021000000e-06     1     4    13     7
-4.2249300000e-05     1     4    13     8
-2.8501710000e-04     1     4    13     9
-2.5408771000e-03     1     4    13    10
-1.0935104000e-03     1     4    13    11
 4.4479500000e-04     1     4    13    12
-7.8668000000e-05     1     4    13    13
-1.1567371600e-02     1     5     2     1
-2.9072260900e-02     1     5     2     2
 2.1500000000e-07     1     5     2     3
 1.2187000000e-06     1     5     2     4
 5.1314595000e-03     1     5     2     6
 6.9977300000e-05     1     5     2     7
 4.1976100000e-05     1     5     2     8
-4.0149742000e-02     1     5     2     9
 4.4522300000e-05     1     5     2    10
 2.7186800000e-05     1     5     2    11
 1.8035980000e-04     1     5     2    12
 2.2714450000e-04     1     5     2    13
-6.9851000000e-06     1     5     3     1
-1.2943000000e-06     1     5     3     2
-2.7868837200e-02     1     5     3     3
 1.1200000000e-08     1     5     3     4
 1.6805200000e-05     1     5     3     6
-8.7949853000e-03     1     5     3     7
 6.9858806000e-03     1     5     3     8
 8.6094000000e-06     1     5     3     9
 9.8023000000e-06     1     5     3    10
-4.4970760000e-04     1     5     3    11
 9.5368210000e-04     1     5     3    12
 3.9540907600e-02     1     5     3    13
-3.2701400000e-05     1     5     4     1
-5.9845000000e-06     1     5     4     2
 1.1000000000e-08     1     5     4     3
-2.7868786200e-02     1     5     4     4
 3.8027100000e-05     1     5     4     6
-6.9866505000e-03     1     5     4     7
-8.7984981000e-03     1     5     4     8
 4.5101000000e-06     1     5     4     9
 1.1236380000e-04     1     5     4    10
 3.2178450000e-04     1     5     4    11
 3.9582570300e-02     1     5     4    12
-1.0949544000e-03     1     5     4    13
-3.6578060550e-01     1     5     5     1
-9.7454038700e-02     1     5     5     2
 1.5956800000e-05     1     5     5     3
 7.4539900000e-05     1     5     5     4
 3.3883285200e-02     1     5     5     6
 5.0934300000e-05     1     5     5     7
 8.6602000000e-06     1     5     5     8
 1.0181744000e-03     1     5     5     9
-4.4598050000e-04     1     5     5    10
-3.8960910000e-04     1     5     5    11
-2.5151024000e-03     1     5     5    12
-3.2718965000e-03     1     5     5    13
 5.8810951000e-03     1     5     6     1
-1.2639706000e-03     1     5     6     2
 4.6030000000e-07     1     5     6     3
 6.6150000000e-07     1     5     6     4
-2.7161035000e-02     1     5     6     6
-5.7524000000e-06     1     5     6     7
-3.9050000000e-06     1     5     6     8
 2.1861860400e-02     1     5     6     9
-1.2733400000e-05     1     5     6    10
-5.6423000000e-06     1     5     6    11
-4.9625500000e-05     1     5     6    12
-4.9039400000e-05     1     5     6    13
-1.2257380000e-04     1     5     7     1
-2.5787800000e-05     1     5     7     2
-3.5804710000e-04     1     5     7     3
-2.8392480000e-04     1     5     7     4
 3.2809000000e-05     1     5     7     6
-3.1121514300e-02     1     5     7     7
-3.0610000000e-07     1     5     7     8
 1.5377800000e-05     1     5     7     9
-2.3305600000e-05     1     5     7    10
 2.9013500000e-05     1     5     7    11
-6.7224565000e-03     1     5     7    12
-8.0294918000e-03     1     5     7    13
-8.5790700000e-05     1     5     8     1
-1.5886300000e-05     1     5     8     2
 2.8395200000e-04     1     5     8     3
-3.5804890000e-04     1     5     8     4
 2.0870200000e-05     1     5     8     6
 8.8500000000e-08     1     5     8     7
-3.1121664400e-02     1     5     8     8
-1.1305000000e-06     1     5     8     9
-1.2578300000e-05     1     5     8    10
-1.2892650000e-04     1     5     8    11
-8.0590303000e-03     1     5     8    12
 6.7453078000e-03     1     5     8    13
 7.7750559500e-02     1     5     9     1
 1.5638496500e-02     1     5     9     2
 2.2730000000e-07     1     5     9     3
 1.2603000000e-06     1     5     9     4
-6.8615475000e-03     1     5     9     6
 1.2173800000e-05     1     5     9     7
 1.7297600000e-05     1     5     9     8
-2.8144900900e-02     1     5     9     9
 5.1624100000e-05     1     5     9    10
 4.6149300000e-05     1     5     9    11
 3.3589930000e-04     1     5     9    12
 4.5045610000e-04     1     5     9    13
-3.1643130000e-04     1     5    10     1
-1.9375800000e-05     1     5    10     2
-1.9510000000e-07     1     5    10     3
 2.9270000000e-07     1     5    10     4
 3.5976700000e-05     1     5    10     6
 1.0890600000e-05     1     5    10     7
 1.4695000000e-05     1     5    10     8
-5.4755400000e-05     1     5    10     9
-2.9824876900e-02     1     5    10    10
 2.5240000000e-07     1     5    10    11
 8.3963000000e-06     1     5    10    12
-1.1036300000e-05     1     5    10    13
-2.5337180000e-04     1     5    11     1
-1.2358500000e-05     1     5    11     2
-8.0660000000e-07     1     5    11     3
 1.8260000000e-07     1     5    11     4
 2.8825200000e-05     1     5    11     6
-2.5399500000e-05     1     5    11     7
 8.2502300000e-05     1     5    11     8
-4.6899100000e-05     1     5    11     9
-5.4000000000e-09     1     5    11    10
-2.9824686000e-02     1     5    11    11
-5.6325000000e-06     1     5    11    12
-4.4700000000e-06     1     5    11    13
-1.5692518000e-03     1     5    12     1
-7.6044500000e-05     1     5    12     2
-1.4365000000e-06     1     5    12     3
-4.8716300000e-05     1     5    12     4
 1.7304990000e-04     1     5    12     6
 3.3917001000e-03     1     5    12     7
 4.0632222000e-03     1     5    12     8
-2.6478870000e-04     1     5    12     9
 3.9439000000e-06     1     5    12    10
 1.4611800000e-05     1     5    12    11
-2.9329267000e-02     1     5    12    12
-4.3550000000e-07     1     5    12    13
-2.0894738000e-03     1     5    13     1
-9.8614500000e-05     1     5    13     2
-4.8941300000e-05     1     5    13     3
 1.6407000000e-06     1     5    13     4