&FCI NORB= 13,NELEC=  2,MS2=0,
 ORBSYM=1,1,1,1,1,1,1,1,1,1,1,1,1
 ISYM=1,
&END
 1.4859560490e-01     1     1     2     2
-4.2686987400e-02     1     1     2     3
 2.2234959400e-02     1     1     2     4
-4.7396560000e-04     1     1     2     5
-3.0210310000e-04     1     1     2     6
-1.6911943900e-02     1     1     2     7
 5.1426000000e-06     1     1     2     8
-2.5907900000e-05     1     1     2     9
 1.6583011000e-03     1     1     2    10
 2.3527757000e-03     1     1     2    11
 4.7479300000e-05     1     1     2    12
-1.5046780000e-04     1     1     2    13
-4.2686987400e-02     1     1     3     2
 2.7415451750e-01     1     1     3     3
 3.6466055000e-03     1     1     3     4
-7.8861500000e-05     1     1     3     5
-4.9337600000e-05     1     1     3     6
-1.1648450000e-03     1     1     3     7
 1.1323760000e-04     1     1     3     8
 2.7367700000e-05     1     1     3     9
-8.2512097700e-02     1     1     3    10
 1.8239229100e-02     1     1     3    11
 5.9435050000e-04     1     1     3    12
-1.2066854000e-03     1     1     3    13
 2.2234959400e-02     1     1     4     2
 3.6466055000e-03     1     1     4     3
 2.8065021820e-01     1     1     4     4
 1.1973440000e-04     1     1     4     5
 7.2533700000e-05     1     1     4     6
 7.0760167500e-02     1     1     4     7
 1.4486280000e-03     1     1     4     8
-9.3788870000e-04     1     1     4     9
 1.3601779100e-02     1     1     4    10
 2.2919574100e-02     1     1     4    11
 2.8588530000e-04     1     1     4    12
-1.2950542000e-03     1     1     4    13
-4.7396560000e-04     1     1     5     2
-7.8861500000e-05     1     1     5     3
 1.1973440000e-04     1     1     5     4
 2.8684648400e-01     1     1     5     5
-1.9645000000e-06     1     1     5     6
-1.5948865000e-03     1     1     5     7
 6.5427670900e-02     1     1     5     8
-3.9701489000e-03     1     1     5     9
-1.8985880000e-04     1     1     5    10
 1.1870460000e-04     1     1     5    11
-2.6345735900e-02     1     1     5    12
-3.5434466000e-03     1     1     5    13
-3.0210310000e-04     1     1     6     2
-4.9337600000e-05     1     1     6     3
 7.2533700000e-05     1     1     6     4
-1.9645000000e-06     1     1     6     5
 2.8685166470e-01     1     1     6     6
-8.9421220000e-04     1     1     6     7
-3.9890553000e-03     1     1     6     8
-6.5431490800e-02     1     1     6     9
-2.0882290000e-04     1     1     6    10
 1.4889228000e-03     1     1     6    11
-3.4589949000e-03     1     1     6    12
 2.6283987800e-02     1     1     6    13
-1.6911943900e-02     1     1     7     2
-1.1648450000e-03     1     1     7     3
 7.0760167500e-02     1     1     7     4
-1.5948865000e-03     1     1     7     5
-8.9421220000e-04     1     1     7     6
 2.9986667160e-01     1     1     7     7
 2.1824400000e-05     1     1     7     8
-1.2858600000e-05     1     1     7     9
-1.9724194000e-03     1     1     7    10
 1.4457718200e-02     1     1     7    11
 4.3838180000e-04     1     1     7    12
-9.9522610000e-04     1     1     7    13
 5.1426000000e-06     1     1     8     2
 1.1323760000e-04     1     1     8     3
 1.4486280000e-03     1     1     8     4
 6.5427670900e-02     1     1     8     5
-3.9890553000e-03     1     1     8     6
 2.1824400000e-05     1     1     8     7
 3.0827726080e-01     1     1     8     8
-1.3080000000e-07     1     1     8     9
 5.0400000000e-06     1     1     8    10
 3.6247290000e-04     1     1     8    11
-1.4114113900e-02     1     1     8    12
-2.7989432000e-03     1     1     8    13
-2.5907900000e-05     1     1     9     2
 2.7367700000e-05     1     1     9     3
-9.3788870000e-04     1     1     9     4
-3.9701489000e-03     1     1     9     5
-6.5431490800e-02     1     1     9     6
-1.2858600000e-05     1     1     9     7
-1.3080000000e-07     1     1     9     8
 3.0827137620e-01     1     1     9     9
-4.0960000000e-06     1     1     9    10
-1.0212314000e-03     1     1     9    11
 2.7310884000e-03     1     1     9    12
-1.4096509500e-02     1     1     9    13
 1.6583011000e-03     1     1    10     2
-8.2512097700e-02     1     1    10     3
 1.3601779100e-02     1     1    10     4
-1.8985880000e-04     1     1    10     5
-2.0882290000e-04     1     1    10     6
-1.9724194000e-03     1     1    10     7
 5.0400000000e-06     1     1    10     8
-4.0960000000e-06     1     1    10     9
 3.3322925440e-01     1     1    10    10
-5.3630874000e-03     1     1    10    11
-2.0170180000e-04     1     1    10    12
 3.4698940000e-04     1     1    10    13
 2.3527757000e-03     1     1    11     2
 1.8239229100e-02     1     1    11     3
 2.2919574100e-02     1     1    11     4
 1.1870460000e-04     1     1    11     5
 1.4889228000e-03     1     1    11     6
 1.4457718200e-02     1     1    11     7
 3.6247290000e-04     1     1    11     8
-1.0212314000e-03     1     1    11     9
-5.3630874000e-03     1     1    11    10
 3.2669358450e-01     1     1    11    11
 3.9011200000e-05     1     1    11    12
-1.4162000000e-05     1     1    11    13
 4.7479300000e-05     1     1    12     2
 5.9435050000e-04     1     1    12     3
 2.8588530000e-04     1     1    12     4
-2.6345735900e-02     1     1    12     5
-3.4589949000e-03     1     1    12     6
 4.3838180000e-04     1     1    12     7
-1.4114113900e-02     1     1    12     8
 2.7310884000e-03     1     1    12     9
-2.0170180000e-04     1     1    12    10
 3.9011200000e-05     1     1    12    11
 3.2705393850e-01     1     1    12    12
 1.8916000000e-06     1     1    12    13
-1.5046780000e-04     1     1    13     2
-1.2066854000e-03     1     1    13     3
-1.2950542000e-03     1     1    13     4
-3.5434466000e-03     1     1    13     5
 2.6283987800e-02     1     1    13     6
-9.9522610000e-04     1     1    13     7
-2.7989432000e-03     1     1    13     8
-1.4096509500e-02     1     1    13     9
 3.4698940000e-04     1     1    13    10
-1.4162000000e-05     1     1    13    11
 1.8916000000e-06     1     1    13    12
 3.2703222550e-01     1     1    13    13
-1.4859560490e-01     1     2     2     1
 1.5323270600e-02     1     2     2     3
-3.2116070400e-02     1     2     2     4
 7.3037800000e-04     1     2     2     5
 4.5082130000e-04     1     2     2     6
 7.7137231000e-03     1     2     2     7
 1.3092000000e-06     1     2     2     8
 1.4076700000e-05     1     2     2     9
-4.9450593000e-03     1     2     2    10
-2.2417265000e-03     1     2     2    11
-5.6097400000e-05     1     2     2    12
 1.4129730000e-04     1     2     2    13
 4.2686987400e-02     1     2     3     1
-7.7884727900e-02     1     2     3     3
-8.8397262000e-03     1     2     3     4
 1.9131250000e-04     1     2     3     5
 1.1944370000e-04     1     2     3     6
 8.6866811000e-03     1     2     3     7
-7.1198700000e-05     1     2     3     8
-7.8950000000e-06     1     2     3     9
 5.1791739200e-02     1     2     3    10
-5.3466641000e-03     1     2     3    11
-1.4868880000e-04     1     2     3    12
 3.3836090000e-04     1     2     3    13
-2.2234959400e-02     1     2     4     1
-1.3348361300e-02     1     2     4     3
-8.2419430700e-02     1     2     4     4
-1.9558970000e-04     1     2     4     5
-1.2270670000e-04     1     2     4     6
-5.2259933600e-02     1     2     4     7
-1.0134262000e-03     1     2     4     8
 6.4562190000e-04     1     2     4     9
-4.0738650000e-03     1     2     4    10
-3.7339842000e-03     1     2     4    11
-3.5285700000e-05     1     2     4    12
 2.1075980000e-04     1     2     4    13
 4.7396560000e-04     1     2     5     1
 2.9692900000e-04     1     2     5     3
-1.9990480000e-04     1     2     5     4
-9.1318883000e-02     1     2     5     5
 2.8580000000e-06     1     2     5     6
 1.1970268000e-03     1     2     5     7
-4.6837941000e-02     1     2     5     8
 2.8422455000e-03     1     2     5     9
 1.6182700000e-05     1     2     5    10
-4.1998800000e-05     1     2     5    11
 5.9590117000e-03     1     2     5    12
 8.0263520000e-04     1     2     5    13
 3.0210310000e-04     1     2     6     1
 1.8401560000e-04     1     2     6     3
-1.2425730000e-04     1     2     6     4
 2.8671000000e-06     1     2     6     5
-9.1323158500e-02     1     2     6     6
 6.7665240000e-04     1     2     6     7
 2.8558064000e-03     1     2     6     8
 4.6844257000e-02     1     2     6     9
 7.4355800000e-05     1     2     6    10
-3.4611220000e-04     1     2     6    11
 7.8346400000e-04     1     2     6    12
-5.9536611000e-03     1     2     6    13
 1.6911943900e-02     1     2     7     1
 8.9718873000e-03     1     2     7     3
-3.7114039300e-02     1     2     7     4
 8.5052830000e-04     1     2     7     5
 4.8062680000e-04     1     2     7     6
-8.6048627800e-02     1     2     7     7
-3.9071200000e-05     1     2     7     8
 2.4933600000e-05     1     2     7     9
 8.3467365000e-03     1     2     7    10
-1.0952994900e-02     1     2     7    11
-3.2902430000e-04     1     2     7    12
 7.4879440000e-04     1     2     7    13
-5.1426000000e-06     1     2     8     1
-5.3927300000e-05     1     2     8     3
-7.2598860000e-04     1     2     8     4
-3.3712531600e-02     1     2     8     5
 2.0553446000e-03     1     2     8     6
-3.7646600000e-05     1     2     8     7
-9.5934863900e-02     1     2     8     8
 5.4440000000e-07     1     2     8     9
-8.0840000000e-07     1     2     8    10
-2.7513020000e-04     1     2     8    11
 1.0814110900e-02     1     2     8    12
 2.1450809000e-03     1     2     8    13
 2.5907900000e-05     1     2     9     1
-6.5916000000e-06     1     2     9     3
 4.6478090000e-04     1     2     9     4
 2.0456427000e-03     1     2     9     5
 3.3716860200e-02     1     2     9     6
 2.6362600000e-05     1     2     9     7
 4.8800000000e-07     1     2     9     8
-9.5928526200e-02     1     2     9     9
 1.4448800000e-05     1     2     9    10
 7.8038460000e-04     1     2     9    11
-2.0923994000e-03     1     2     9    12
 1.0800879100e-02     1     2     9    13
-1.6583011000e-03     1     2    10     1
 4.3429003900e-02     1     2    10     3
-4.8173206000e-03     1     2    10     4
 4.5862300000e-05     1     2    10     5
 7.7015000000e-05     1     2    10     6
 6.1870796000e-03     1     2    10     7
-2.0133000000e-06     1     2    10     8
 1.3299900000e-05     1     2    10     9
-1.1732960420e-01     1     2    10    10
 6.1295301000e-03     1     2    10    11
 2.2836040000e-04     1     2    10    12
-3.9562820000e-04     1     2    10    13
-2.3527757000e-03     1     2    11     1
-5.0723110000e-03     1     2    11     3
-3.4578948000e-03     1     2    11     4
-4.1361800000e-05     1     2    11     5
-3.0145690000e-04     1     2    11     6
-1.2728812700e-02     1     2    11     7
-3.1830650000e-04     1     2    11     8
 9.0223790000e-04     1     2    11     9
 6.9429561000e-03     1     2    11    10
-1.0971331380e-01     1     2    11    11
-3.7618500000e-05     1     2    11    12
-2.2676000000e-06     1     2    11    13
-4.7479300000e-05     1     2    12     1
-1.4114910000e-04     1     2    12     3
-2.4835100000e-05     1     2    12     4
 5.1340458000e-03     1     2    12     5
 6.7462040000e-04     1     2    12     6
-3.9232470000e-04     1     2    12     7
 1.2500649200e-02     1     2    12     8
-2.4182072000e-03     1     2    12     9
 2.6073440000e-04     1     2    12    10
-3.7553200000e-05     1     2    12    11
-1.1030221330e-01     1     2    12    12
-2.8196000000e-06     1     2    12    13
 1.5046780000e-04     1     2    13     1
 3.2081640000e-04     1     2    13     3
 1.9357380000e-04     1     2    13     4
 6.9149650000e-04     1     2    13     5
-5.1287987000e-03     1     2    13     6
 8.6059080000e-04     1     2    13     7
 2.4790867000e-03     1     2    13     8
 1.2478823400e-02     1     2    13     9
-4.5047200000e-04     1     2    13    10
-1.4381000000e-06     1     2    13    11
-2.6748000000e-06     1     2    13    12
-1.1029163900e-01     1     2    13    13
 4.2686987400e-02     1     3     2     1
-1.5323270600e-02     1     3     2     2
 4.5086351000e-03     1     3     2     4
-1.0561650000e-04     1     3     2     5
-6.4571900000e-05     1     3     2     6
-2.8520620000e-04     1     3     2     7
-1.7271400000e-05     1     3     2     8
-1.3034000000e-06     1     3     2     9
 8.3627353000e-03     1     3     2    10
-2.7435310000e-04     1     3     2    11
-7.5397000000e-06     1     3     2    12
 1.7544500000e-05     1     3     2    13
-2.7415451750e-01     1     3     3     1
 7.7884727900e-02     1     3     3     2
-8.7002250000e-04     1     3     3     4
 7.9056300000e-05     1     3     3     5
 3.1555600000e-05     1     3     3     6
 1.5887024800e-02     1     3     3     7
 7.6018200000e-05     1     3     3     8
 2.1957600000e-05     1     3     3     9
-3.8346635700e-02     1     3     3    10
 1.2266615000e-02     1     3     3    11
 4.0852360000e-04     1     3     3    12
-8.1740450000e-04     1     3     3    13
-3.6466055000e-03     1     3     4     1
 1.3348361300e-02     1     3     4     2
 5.2718937500e-02     1     3     4     4
 5.4483000000e-05     1     3     4     5
 3.3134200000e-05     1     3     4     6
 3.1259227900e-02     1     3     4     7
 7.2668230000e-04     1     3     4     8
-4.7829290000e-04     1     3     4     9
 6.9892219000e-03     1     3     4    10
 1.8441177600e-02     1     3     4    11
 1.7767230000e-04     1     3     4    12
-1.0402087000e-03     1     3     4    13
 7.8861500000e-05     1     3     5     1
-2.9692900000e-04     1     3     5     2
 5.0406400000e-05     1     3     5     4
 5.5388482500e-02     1     3     5     5
-7.9350000000e-07     1     3     5     6
-6.9574470000e-04     1     3     5     7
 3.3009070300e-02     1     3     5     8
-2.0029171000e-03     1     3     5     9
-8.4169800000e-05     1     3     5    10
 7.3550600000e-05     1     3     5    11
-2.0154055400e-02     1     3     5    12
-2.7111856000e-03     1     3     5    13
 4.9337600000e-05     1     3     6     1
-1.8401560000e-04     1     3     6     2
 3.1589500000e-05     1     3     6     4
-8.0990000000e-07     1     3     6     5
 5.5390194500e-02     1     3     6     6
-3.8484800000e-04     1     3     6     7
-2.0124270000e-03     1     3     6     8
-3.3009493100e-02     1     3     6     9
-1.0304970000e-04     1     3     6    10
 1.1332504000e-03     1     3     6    11
-2.6434810000e-03     1     3     6    12
 2.0107855500e-02     1     3     6    13
 1.1648450000e-03     1     3     7     1
-8.9718873000e-03     1     3     7     2
 1.2014236400e-02     1     3     7     4
-2.7873280000e-04     1     3     7     5
-1.5746050000e-04     1     3     7     6
 5.0140929200e-02     1     3     7     7
 3.4066000000e-06     1     3     7     8
-4.0267000000e-06     1     3     7     9
 4.2360898000e-03     1     3     7    10
 8.8962852000e-03     1     3     7    11
 3.1672770000e-04     1     3     7    12
-6.1176890000e-04     1     3     7    13
-1.1323760000e-04     1     3     8     1
 5.3927300000e-05     1     3     8     2
 2.2177020000e-04     1     3     8     4
 1.0219994600e-02     1     3     8     5
-6.2281160000e-04     1     3     8     6
 1.3076800000e-05     1     3     8     7
 5.0548871400e-02     1     3     8     8
-2.8430000000e-07     1     3     8     9
 2.2093500000e-05     1     3     8    10
 2.0823220000e-04     1     3     8    11
-9.3887434000e-03     1     3     8    12
-1.8607391000e-03     1     3     8    13
-2.7367700000e-05     1     3     9     1
 6.5916000000e-06     1     3     9     2
-1.4037150000e-04     1     3     9     4
-6.1999590000e-04     1     3     9     5
-1.0220951600e-02     1     3     9     6
-3.1045000000e-06     1     3     9     7
-3.1800000000e-08     1     3     9     8
 5.0546585900e-02     1     3     9     9
-1.8560000000e-06     1     3     9    10
-6.5711870000e-04     1     3     9    11
 1.8164016000e-03     1     3     9    12
-9.3675502000e-03     1     3     9    13
 8.2512097700e-02     1     3    10     1
-4.3429003900e-02     1     3    10     2
 1.0817403000e-03     1     3    10     4
-2.1024100000e-05     1     3    10     5
-2.1925500000e-05     1     3    10     6
-5.0556270000e-04     1     3    10     7
 5.3603000000e-06     1     3    10     8
-1.8489000000e-06     1     3    10     9
 5.9074267700e-02     1     3    10    10
-4.5092030000e-03     1     3    10    11
-1.5737190000e-04     1     3    10    12
 2.9728730000e-04     1     3    10    13
-1.8239229100e-02     1     3    11     1
 5.0723110000e-03     1     3    11     2
 6.7329800000e-05     1     3    11     4
 2.1932200000e-05     1     3    11     5
 6.2482100000e-05     1     3    11     6
 5.1182873000e-03     1     3    11     7
 1.3023550000e-04     1     3    11     8
-3.7119530000e-04     1     3    11     9
-2.2654802000e-03     1     3    11    10
 4.8461345000e-02     1     3    11    11
 1.6221100000e-05     1     3    11    12
-1.3475600000e-05     1     3    11    13
-5.9435050000e-04     1     3    12     1
 1.4114910000e-04     1     3    12     2
-1.0930100000e-05     1     3    12     4
-9.2551770000e-04     1     3    12     5
-1.2057570000e-04     1     3    12     6
 1.7057770000e-04     1     3    12     7
-5.1812524000e-03     1     3    12     8
 1.0028346000e-03     1     3    12     9
-8.0153800000e-05     1     3    12    10
 2.2335800000e-05     1     3    12    11
 4.8568536800e-02     1     3    12    12
 2.2198000000e-06     1     3    12    13
 1.2066854000e-03     1     3    13     1
-3.2081640000e-04     1     3    13     2
 6.9949000000e-06     1     3    13     4
-1.2504840000e-04     1     3    13     5
 9.2207590000e-04     1     3    13     6
-3.5220430000e-04     1     3    13     7
-1.0268866000e-03     1     3    13     8
-5.1733477000e-03     1     3    13     9
 1.4736150000e-04     1     3    13    10
-1.3747500000e-05     1     3    13    11
 1.6706000000e-06     1     3    13    12
 4.8561401500e-02     1     3    13    13
-2.2234959400e-02     1     4     2     1
 3.2116070400e-02     1     4     2     2
-4.5086351000e-03     1     4     2     3
 4.3151000000e-06     1     4     2     5
 1.5506000000e-06     1     4     2     6
-1.5145894300e-02     1     4     2     7
-2.8743760000e-04     1     4     2     8
 1.8084100000e-04     1     4     2     9
 7.4345560000e-04     1     4     2    10
-2.7608940000e-04     1     4     2    11
-1.0450600000e-05     1     4     2    12
 1.7186000000e-05     1     4     2    13
-3.6466055000e-03     1     4     3     1
 8.8397262000e-03     1     4     3     2
 8.7002250000e-04     1     4     3     3
 4.0766000000e-06     1     4     3     5
 1.5447000000e-06     1     4     3     6
 1.9244991500e-02     1     4     3     7
 5.0491210000e-04     1     4     3     8
-3.3792140000e-04     1     4     3     9
 5.9074816000e-03     1     4     3    10
 1.8373847800e-02     1     4     3    11
 1.8860240000e-04     1     4     3    12
-1.0472036000e-03     1     4     3    13
-2.8065021820e-01     1     4     4     1
 8.2419430700e-02     1     4     4     2
-5.2718937500e-02     1     4     4     3
 1.4619490000e-04     1     4     4     5
 7.2120600000e-05     1     4     4     6
-5.9732589000e-03     1     4     4     7
-5.6623450000e-04     1     4     4     8
 3.6414130000e-04     1     4     4     9
 2.0360898500e-02     1     4     4    10
 2.4629073100e-02     1     4     4    11
-3.4745510000e-04     1     4     4    12
-1.0895486000e-03     1     4     4    13
-1.1973440000e-04     1     4     5     1
 1.9990480000e-04     1     4     5     2
-5.0406400000e-05     1     4     5     3
 3.6699214000e-03     1     4     5     5
 4.2700000000e-08     1     4     5     6
 4.9114250000e-04     1     4     5     7
-1.4609615400e-02     1     4     5     8
 8.8318870000e-04     1     4     5     9
-2.0185180000e-04     1     4     5    10
-3.2606420000e-04     1     4     5    11
-2.6793949700e-02     1     4     5    12
-3.6470129000e-03     1     4     5    13
-7.2533700000e-05     1     4     6     1
 1.2425730000e-04     1     4     6     2
-3.1589500000e-05     1     4     6     3
 6.5800000000e-08     1     4     6     5
 3.6696451000e-03     1     4     6     6
 2.8877160000e-04     1     4     6     7
 8.9498960000e-04     1     4     6     8
 1.4620924700e-02     1     4     6     9
-1.0593310000e-04     1     4     6    10
 1.2633354000e-03     1     4     6    11
-3.4908689000e-03     1     4     6    12
 2.6769391300e-02     1     4     6    13
-7.0760167500e-02     1     4     7     1
 3.7114039300e-02     1     4     7     2
-1.2014236400e-02     1     4     7     3
 1.4835200000e-05     1     4     7     5
 1.7748000000e-06     1     4     7     6
 1.3252187100e-02     1     4     7     7
-4.8397400000e-05     1     4     7     8
 1.9864000000e-05     1     4     7     9
 1.9627572700e-02     1     4     7    10
 4.3846673000e-03     1     4     7    11
 2.2583800000e-05     1     4     7    12
-2.2097570000e-04     1     4     7    13
-1.4486280000e-03     1     4     8     1
 7.2598860000e-04     1     4     8     2
-2.2177020000e-04     1     4     8     3
-2.5297732000e-03     1     4     8     5
 1.5330340000e-04     1     4     8     6
 1.1294790000e-04     1     4     8     7
 9.7974372000e-03     1     4     8     8
 4.4590000000e-07     1     4     8     9
 4.4298080000e-04     1     4     8    10
-1.6104800000e-05     1     4     8    11
-5.0017823000e-03     1     4     8    12
-9.9820830000e-04     1     4     8    13
 9.3788870000e-04     1     4     9     1
-4.6478090000e-04     1     4     9     2
 1.4037150000e-04     1     4     9     3
 1.5392060000e-04     1     4     9     5
 2.5296937000e-03     1     4     9     6
-7.4333200000e-05     1     4     9     7
 5.9210000000e-07     1     4     9     8
 9.7998394000e-03     1     4     9     9
-2.7862220000e-04     1     4     9    10
-2.6420650000e-04     1     4     9    11
 9.6376570000e-04     1     4     9    12
-4.9892967000e-03     1     4     9    13
-1.3601779100e-02     1     4    10     1
 4.8173206000e-03     1     4    10     2
-1.0817403000e-03     1     4    10     3
 1.1421000000e-06     1     4    10     5
 2.5054000000e-06     1     4    10     6
 1.4660483000e-03     1     4    10     7
 7.8757200000e-05     1     4    10     8
-4.7386300000e-05     1     4    10     9
 1.2346957000e-03     1     4    10    10
-7.7756770000e-04     1     4    10    11
 7.3501000000e-06     1     4    10    12
 4.6218800000e-05     1     4    10    13
-2.2919574100e-02     1     4    11     1
 3.4578948000e-03     1     4    11     2
-6.7329800000e-05     1     4    11     3
 2.9732800000e-05     1     4    11     5
 6.9876500000e-05     1     4    11     6
-4.1578076000e-03     1     4    11     7
-9.9979400000e-05     1     4    11     8
 3.6195550000e-04     1     4    11     9
 7.5261545000e-03     1     4    11    10
 5.3877114000e-03     1     4    11    11
-1.1991360000e-04     1     4    11    12
 5.3663500000e-05     1     4    11    13
-2.8588530000e-04     1     4    12     1
 2.4835100000e-05     1     4    12     2
 1.0930100000e-05     1     4    12     3
-9.8257880000e-04     1     4    12     5
-1.2788700000e-04     1     4    12     6
-1.1240330000e-04     1     4    12     7
 5.3090839000e-03     1     4    12     8
-1.0241171000e-03     1     4    12     9
 1.4387400000e-04     1     4    12    10
 7.1490100000e-05     1     4    12    11
 5.3192609000e-03     1     4    12    12
-8.0560000000e-06     1     4    12    13
 1.2950542000e-03     1     4    13     1
-1.9357380000e-04     1     4    13     2
-6.9949000000e-06     1     4    13     3
-1.3249790000e-04     1     4    13     5
 9.7968490000e-04     1     4    13     6
 2.6127890000e-04     1     4    13     7
 1.0578908000e-03     1     4    13     8
 5.3001622000e-03     1     4    13     9
-4.3641960000e-04     1     4    13    10
-3.0650100000e-05     1     4    13    11
-4.7951000000e-06     1     4    13    12
 5.3150719000e-03     1     4    13    13
 4.7396560000e-04     1     5     2     1
-7.3037800000e-04     1     5     2     2
 1.0561650000e-04     1     5     2     3
-4.3151000000e-06     1     5     2     4
-9.1000000000e-09     1     5     2     6
 3.4649850000e-04     1     5     2     7
-1.3125409400e-02     1     5     2     8
 7.9660280000e-04     1     5     2     9
-2.9679600000e-05     1     5     2    10
-6.3700000000e-07     1     5     2    11
 8.2496590000e-04     1     5     2    12
 1.1113870000e-04     1     5     2    13
 7.8861500000e-05     1     5     3     1
-1.9131250000e-04     1     5     3     2
-7.9056300000e-05     1     5     3     3
-4.0766000000e-06     1     5     3     4
 1.6400000000e-08     1     5     3     6
-4.1701190000e-04     1     5     3     7
 2.2789075700e-02     1     5     3     8
-1.3829212000e-03     1     5     3     9
-6.3145700000e-05     1     5     3    10
 5.1618400000e-05     1     5     3    11
-1.9228537700e-02     1     5     3    12
-2.5861372000e-03     1     5     3    13
-1.1973440000e-04     1     5     4     1
 1.9558970000e-04     1     5     4     2
-5.4483000000e-05     1     5     4     3
-1.4619490000e-04     1     5     4     4
-2.3100000000e-08     1     5     4     6
 4.7630730000e-04     1     5     4     7
-1.2079842200e-02     1     5     4     8
 7.2926810000e-04     1     5     4     9
-2.0299390000e-04     1     5     4    10
-3.5579700000e-04     1     5     4    11
-2.5811370900e-02     1     5     4    12
-3.5145150000e-03     1     5     4    13
-2.8684648400e-01     1     5     5     1
 9.1318883000e-02     1     5     5     2
-5.5388482500e-02     1     5     5     3
-3.6699214000e-03     1     5     5     4
 7.2862100000e-05     1     5     5     6
 1.4741278100e-02     1     5     5     7
 5.0568240000e-04     1     5     5     8
-1.6739100000e-05     1     5     5     9
 1.1880031100e-02     1     5     5    10
-2.0284584000e-02     1     5     5    11
 1.2585557000e-03     1     5     5    12
-6.8206340000e-04     1     5     5    13
 1.9645000000e-06     1     5     6     1
-2.8671000000e-06     1     5     6     2
 8.0990000000e-07     1     5     6     3
-6.5800000000e-08     1     5     6     4
-1.4912900000e-04     1     5     6     6
-6.1059000000e-06     1     5     6     7
 1.4526610000e-04     1     5     6     8
-3.1280710000e-04     1     5     6     9
-1.0538000000e-06     1     5     6    10
-3.4861530000e-04     1     5     6    11
 2.1340132000e-03     1     5     6    12
-1.3964324000e-03     1     5     6    13
 1.5948865000e-03     1     5     7     1
-8.5052830000e-04     1     5     7     2
 2.7873280000e-04     1     5     7     3
-1.4835200000e-05     1     5     7     4
 1.6150000000e-07     1     5     7     6
-3.8783620000e-04     1     5     7     7
-4.9320060000e-04     1     5     7     8
 3.0172700000e-05     1     5     7     9
-4.4457690000e-04     1     5     7    10
 6.8879500000e-05     1     5     7    11
-6.7451318000e-03     1     5     7    12
-9.0970100000e-04     1     5     7    13
-6.5427670900e-02     1     5     8     1
 3.3712531600e-02     1     5     8     2
-1.0219994600e-02     1     5     8     3
 2.5297732000e-03     1     5     8     4
-3.5402600000e-05     1     5     8     6
 6.3815907000e-03     1     5     8     7
-2.6517520000e-04     1     5     8     8
-5.9938000000e-06     1     5     8     9
 1.9761940400e-02     1     5     8    10
-5.5068031000e-03     1     5     8    11
 9.2303400000e-05     1     5     8    12
-1.4881410000e-04     1     5     8    13
 3.9701489000e-03     1     5     9     1
-2.0456427000e-03     1     5     9     2
 6.1999590000e-04     1     5     9     3
-1.5392060000e-04     1     5     9     4
-4.5783300000e-05     1     5     9     6
-3.8711790000e-04     1     5     9     7
-4.6339000000e-06     1     5     9     8
-2.8466020000e-04     1     5     9     9
-1.1985334000e-03     1     5     9    10
 4.1411140000e-04     1     5     9    11
-4.2609110000e-04     1     5     9    12
 3.2267070000e-04     1     5     9    13
 1.8985880000e-04     1     5    10     1
-4.5862300000e-05     1     5    10     2
 2.1024100000e-05     1     5    10     3
-1.1421000000e-06     1     5    10     4
-2.3000000000e-08     1     5    10     6
-2.5774700000e-05     1     5    10     7
 3.4119048000e-03     1     5    10     8
-2.0742850000e-04     1     5    10     9
-8.3272400000e-05     1     5    10    10
-2.8415700000e-05     1     5    10    11
 1.8999439000e-03     1     5    10    12
 2.5621500000e-04     1     5    10    13
-1.1870460000e-04     1     5    11     1
 4.1361800000e-05     1     5    11     2
-2.1932200000e-05     1     5    11     3
-2.9732800000e-05     1     5    11     4
-1.3394000000e-06     1     5    11     6
 6.4952800000e-05     1     5    11     7
 8.9187300000e-04     1     5    11     8
-9.6064000000e-05     1     5    11     9
-2.6354700000e-05     1     5    11    10
-1.9868810000e-04     1     5    11    11
-3.4197158000e-03     1     5    11    12
-4.3279520000e-04     1     5    11    13
 2.6345735900e-02     1     5    12     1
-5.1340458000e-03     1     5    12     2
 9.2551770000e-04     1     5    12     3
 9.8257880000e-04     1     5    12     4
-1.2304100000e-05     1     5    12     6
 1.5613560000e-03     1     5    12     7
-1.0164080000e-04     1     5    12     8
 2.0621020000e-04     1     5    12     9
-5.2594869000e-03     1     5    12    10
 4.6838713000e-03     1     5    12    11
-1.2221000000e-04     1     5    12    12
-3.7694710000e-04     1     5    12    13
 3.5434466000e-03     1     5    13     1
-6.9149650000e-04     1     5    13     2
 1.2504840000e-04     1     5    13     3
 1.3249790000e-04     1     5    13     4