&FCI NORB=  5,NELEC=  2,MS2=0,
 ORBSYM=1,1,1,1,1
 ISYM=1,
&END
 3.3408607990e-01     1     1     2     2
 9.3500000000e-08     1     1     2     3
-1.4097000000e-06     1     1     2     4
-2.8477593000e-03     1     1     2     5
 9.3500000000e-08     1     1     3     2
 3.6891062360e-01     1     1     3     3
-3.9000000000e-09     1     1     3     4
-2.3991000000e-06     1     1     3     5
-1.4097000000e-06     1     1     4     2
-3.9000000000e-09     1     1     4     3
 3.6891969380e-01     1     1     4     4
 2.3327000000e-05     1     1     4     5
-2.8477593000e-03     1     1     5     2
-2.3991000000e-06     1     1     5     3
 2.3327000000e-05     1     1     5     4
 4.0104124540e-01     1     1     5     5
-3.3408607990e-01     1     2     2     1
 1.1617000000e-06     1     2     2     3
-6.2091000000e-06     1     2     2     4
-5.6066337000e-03     1     2     2     5
-9.3500000000e-08     1     2     3     1
 1.0349486090e-01     1     2     3     3
-5.0000000000e-10     1     2     3     4
-5.6300000000e-08     1     2     3     5
 1.4097000000e-06     1     2     4     1
-3.0000000000e-10     1     2     4     3
 1.0349805650e-01     1     2     4     4
 3.4740000000e-07     1     2     4     5
 2.8477593000e-03     1     2     5     1
-1.4420000000e-07     1     2     5     3
 1.7463000000e-06     1     2     5     4
 1.1011376760e-01     1     2     5     5
-9.3500000000e-08     1     3     2     1
-1.1617000000e-06     1     3     2     2
-2.0000000000e-10     1     3     2     4
 8.7900000000e-08     1     3     2     5
-3.6891062360e-01     1     3     3     1
-1.0349486090e-01     1     3     3     2
-4.9854000000e-06     1     3     3     4
-4.6414533000e-03     1     3     3     5
 3.9000000000e-09     1     3     4     1
 3.0000000000e-10     1     3     4     2
-1.1761000000e-06     1     3     4     4
-1.0000000000e-09     1     3     4     5
 2.3991000000e-06     1     3     5     1
 1.4420000000e-07     1     3     5     2
 3.0000000000e-10     1     3     5     4
-1.7035000000e-06     1     3     5     5
 1.4097000000e-06     1     4     2     1
 6.2091000000e-06     1     4     2     2
 2.0000000000e-10     1     4     2     3
-1.3989000000e-06     1     4     2     5
 3.9000000000e-09     1     4     3     1
 5.0000000000e-10     1     4     3     2
 4.9854000000e-06     1     4     3     3
-1.3000000000e-09     1     4     3     5
-3.6891969380e-01     1     4     4     1
-1.0349805650e-01     1     4     4     2
 1.1761000000e-06     1     4     4     3
-4.6408776000e-03     1     4     4     5
-2.3327000000e-05     1     4     5     1
-1.7463000000e-06     1     4     5     2
-3.0000000000e-10     1     4     5     3
 9.6501000000e-06     1     4     5     5
 2.8477593000e-03     1     5     2     1
 5.6066337000e-03     1     5     2     2
-8.7900000000e-08     1     5     2     3
 1.3989000000e-06     1     5     2     4
 2.3991000000e-06     1     5     3     1
 5.6300000000e-08     1     5     3     2
 4.6414533000e-03     1     5     3     3
 1.3000000000e-09     1     5     3     4
-2.3327000000e-05     1     5     4     1
-3.4740000000e-07     1     5     4     2
 1.0000000000e-09     1     5     4     3
 4.6408776000e-03     1     5     4     4
-4.0104124540e-01     1     5     5     1
-1.1011376760e-01     1     5     5     2
 1.7035000000e-06     1     5     5     3
-9.6501000000e-06     1     5     5     4
-3.3408607990e-01     2     1     1     2
-9.3500000000e-08     2     1     1     3
 1.4097000000e-06     2     1     1     4
 2.8477593000e-03     2     1     1     5
 1.1617000000e-06     2     1     3     2
 1.0349486090e-01     2     1     3     3
-3.0000000000e-10     2     1     3     4
-1.4420000000e-07     2     1     3     5
-6.2091000000e-06     2     1     4     2
-5.0000000000e-10     2     1     4     3
 1.0349805650e-01     2     1     4     4
 1.7463000000e-06     2     1     4     5
-5.6066337000e-03     2     1     5     2
-5.6300000000e-08     2     1     5     3
 3.4740000000e-07     2     1     5     4
 1.1011376760e-01     2     1     5     5
 3.3408607990e-01     2     2     1     1
-1.1617000000e-06     2     2     1     3
 6.2091000000e-06     2     2     1     4
 5.6066337000e-03     2     2     1     5
-1.1617000000e-06     2     2     3     1
 3.7425230820e-01     2     2     3     3
-2.9000000000e-09     2     2     3     4
-1.5356000000e-06     2     2     3     5
 6.2091000000e-06     2     2     4     1
-2.9000000000e-09     2     2     4     3
 3.7426233980e-01     2     2     4     4
 1.4931900000e-05     2     2     4     5
 5.6066337000e-03     2     2     5     1
-1.5356000000e-06     2     2     5     3
 1.4931900000e-05     2     2     5     4
 4.0092317770e-01     2     2     5     5
 9.3500000000e-08     2     3     1     1
 1.1617000000e-06     2     3     1     2
 2.0000000000e-10     2     3     1     4
-8.7900000000e-08     2     3     1     5
-1.0349486090e-01     2     3     3     1
-3.7425230820e-01     2     3     3     2
-1.5268000000e-06     2     3     3     4
 2.5451200000e-04     2     3     3     5
 5.0000000000e-10     2     3     4     1
 2.9000000000e-09     2     3     4     2
-3.0220000000e-07     2     3     4     4
-8.0000000000e-10     2     3     4     5
 5.6300000000e-08     2     3     5     1
 1.5356000000e-06     2     3     5     2
-5.8440000000e-07     2     3     5     5
-1.4097000000e-06     2     4     1     1
-6.2091000000e-06     2     4     1     2
-2.0000000000e-10     2     4     1     3
 1.3989000000e-06     2     4     1     5
 3.0000000000e-10     2     4     3     1
 2.9000000000e-09     2     4     3     2
 1.5268000000e-06     2     4     3     3
-8.0000000000e-10     2     4     3     5
-1.0349805650e-01     2     4     4     1
-3.7426233980e-01     2     4     4     2
 3.0220000000e-07     2     4     4     3
 2.5507020000e-04     2     4     4     5
-3.4740000000e-07     2     4     5     1
-1.4931900000e-05     2     4     5     2
 3.4633000000e-06     2     4     5     5
-2.8477593000e-03     2     5     1     1
-5.6066337000e-03     2     5     1     2
 8.7900000000e-08     2     5     1     3
-1.3989000000e-06     2     5     1     4
 1.4420000000e-07     2     5     3     1
 1.5356000000e-06     2     5     3     2
-2.5451200000e-04     2     5     3     3
 8.0000000000e-10     2     5     3     4
-1.7463000000e-06     2     5     4     1
-1.4931900000e-05     2     5     4     2
 8.0000000000e-10     2     5     4     3
-2.5507020000e-04     2     5     4     4
-1.1011376760e-01     2     5     5     1
-4.0092317770e-01     2     5     5     2
 5.8440000000e-07     2     5     5     3
-3.4633000000e-06     2     5     5     4
-9.3500000000e-08     3     1     1     2
-3.6891062360e-01     3     1     1     3
 3.9000000000e-09     3     1     1     4
 2.3991000000e-06     3     1     1     5
-1.1617000000e-06     3     1     2     2
-1.0349486090e-01     3     1     2     3
 3.0000000000e-10     3     1     2     4
 1.4420000000e-07     3     1     2     5
-2.0000000000e-10     3     1     4     2
-4.9854000000e-06     3     1     4     3
-1.1761000000e-06     3     1     4     4
 3.0000000000e-10     3     1     4     5
 8.7900000000e-08     3     1     5     2
-4.6414533000e-03     3     1     5     3
-1.0000000000e-09     3     1     5     4
-1.7035000000e-06     3     1     5     5
 9.3500000000e-08     3     2     1     1
-1.0349486090e-01     3     2     1     3
 5.0000000000e-10     3     2     1     4
 5.6300000000e-08     3     2     1     5
 1.1617000000e-06     3     2     2     1
-3.7425230820e-01     3     2     2     3
 2.9000000000e-09     3     2     2     4
 1.5356000000e-06     3     2     2     5
 2.0000000000e-10     3     2     4     1
-1.5268000000e-06     3     2     4     3
-3.0220000000e-07     3     2     4     4
-8.7900000000e-08     3     2     5     1
 2.5451200000e-04     3     2     5     3
-8.0000000000e-10     3     2     5     4
-5.8440000000e-07     3     2     5     5
 3.6891062360e-01     3     3     1     1
 1.0349486090e-01     3     3     1     2
 4.9854000000e-06     3     3     1     4
 4.6414533000e-03     3     3     1     5
 1.0349486090e-01     3     3     2     1
 3.7425230820e-01     3     3     2     2
 1.5268000000e-06     3     3     2     4
-2.5451200000e-04     3     3     2     5
 4.9854000000e-06     3     3     4     1
 1.5268000000e-06     3     3     4     2
 3.9302502450e-01     3     3     4     4
 1.2703600000e-05     3     3     4     5
 4.6414533000e-03     3     3     5     1
-2.5451200000e-04     3     3     5     2
 1.2703600000e-05     3     3     5     4
 4.1680051580e-01     3     3     5     5
-3.9000000000e-09     3     4     1     1
-5.0000000000e-10     3     4     1     2
-4.9854000000e-06     3     4     1     3
 1.3000000000e-09     3     4     1     5
-3.0000000000e-10     3     4     2     1
-2.9000000000e-09     3     4     2     2
-1.5268000000e-06     3     4     2     3
 8.0000000000e-10     3     4     2     5
 1.1761000000e-06     3     4     4     1
 3.0220000000e-07     3     4     4     2
-3.9302502450e-01     3     4     4     3
 1.2862000000e-06     3     4     4     5
 1.0000000000e-09     3     4     5     1
 8.0000000000e-10     3     4     5     2
-1.2703600000e-05     3     4     5     3
-3.0000000000e-09     3     4     5     5
-2.3991000000e-06     3     5     1     1
-5.6300000000e-08     3     5     1     2
-4.6414533000e-03     3     5     1     3
-1.3000000000e-09     3     5     1     4
-1.4420000000e-07     3     5     2     1
-1.5356000000e-06     3     5     2     2
 2.5451200000e-04     3     5     2     3
-8.0000000000e-10     3     5     2     4
-3.0000000000e-10     3     5     4     1
-1.2703600000e-05     3     5     4     3
-1.2862000000e-06     3     5     4     4
 1.7035000000e-06     3     5     5     1
 5.8440000000e-07     3     5     5     2
-4.1680051580e-01     3     5     5     3
 3.0000000000e-09     3     5     5     4
 1.4097000000e-06     4     1     1     2
 3.9000000000e-09     4     1     1     3
-3.6891969380e-01     4     1     1     4
-2.3327000000e-05     4     1     1     5
 6.2091000000e-06     4     1     2     2
 5.0000000000e-10     4     1     2     3
-1.0349805650e-01     4     1     2     4
-1.7463000000e-06     4     1     2     5
 2.0000000000e-10     4     1     3     2
 4.9854000000e-06     4     1     3     3
 1.1761000000e-06     4     1     3     4
-3.0000000000e-10     4     1     3     5
-1.3989000000e-06     4     1     5     2
-1.3000000000e-09     4     1     5     3
-4.6408776000e-03     4     1     5     4
 9.6501000000e-06     4     1     5     5
-1.4097000000e-06     4     2     1     1
 3.0000000000e-10     4     2     1     3
-1.0349805650e-01     4     2     1     4
-3.4740000000e-07     4     2     1     5
-6.2091000000e-06     4     2     2     1
 2.9000000000e-09     4     2     2     3
-3.7426233980e-01     4     2     2     4
-1.4931900000e-05     4     2     2     5
-2.0000000000e-10     4     2     3     1
 1.5268000000e-06     4     2     3     3
 3.0220000000e-07     4     2     3     4
 1.3989000000e-06     4     2     5     1
-8.0000000000e-10     4     2     5     3
 2.5507020000e-04     4     2     5     4
 3.4633000000e-06     4     2     5     5
-3.9000000000e-09     4     3     1     1
-3.0000000000e-10     4     3     1     2
 1.1761000000e-06     4     3     1     4
 1.0000000000e-09     4     3     1     5
-5.0000000000e-10     4     3     2     1
-2.9000000000e-09     4     3     2     2
 3.0220000000e-07     4     3     2     4
 8.0000000000e-10     4     3     2     5
-4.9854000000e-06     4     3     3     1
-1.5268000000e-06     4     3     3     2
-3.9302502450e-01     4     3     3     4
-1.2703600000e-05     4     3     3     5
 1.3000000000e-09     4     3     5     1
 8.0000000000e-10     4     3     5     2
 1.2862000000e-06     4     3     5     4
-3.0000000000e-09     4     3     5     5
 3.6891969380e-01     4     4     1     1
 1.0349805650e-01     4     4     1     2
-1.1761000000e-06     4     4     1     3
 4.6408776000e-03     4     4     1     5
 1.0349805650e-01     4     4     2     1
 3.7426233980e-01     4     4     2     2
-3.0220000000e-07     4     4     2     3
-2.5507020000e-04     4     4     2     5
-1.1761000000e-06     4     4     3     1
-3.0220000000e-07     4     4     3     2
 3.9302502450e-01     4     4     3     3
-1.2862000000e-06     4     4     3     5
 4.6408776000e-03     4     4     5     1
-2.5507020000e-04     4     4     5     2
-1.2862000000e-06     4     4     5     3
 4.1681080340e-01     4     4     5     5
 2.3327000000e-05     4     5     1     1
 3.4740000000e-07     4     5     1     2
-1.0000000000e-09     4     5     1     3
-4.6408776000e-03     4     5     1     4
 1.7463000000e-06     4     5     2     1
 1.4931900000e-05     4     5     2     2
-8.0000000000e-10     4     5     2     3
 2.5507020000e-04     4     5     2     4
 3.0000000000e-10     4     5     3     1
 1.2703600000e-05     4     5     3     3
 1.2862000000e-06     4     5     3     4
-9.6501000000e-06     4     5     5     1
-3.4633000000e-06     4     5     5     2
 3.0000000000e-09     4     5     5     3
-4.1681080340e-01     4     5     5     4
 2.8477593000e-03     5     1     1     2
 2.3991000000e-06     5     1     1     3
-2.3327000000e-05     5     1     1     4
-4.0104124540e-01     5     1     1     5
 5.6066337000e-03     5     1     2     2
 5.6300000000e-08     5     1     2     3
-3.4740000000e-07     5     1     2     4
-1.1011376760e-01     5     1     2     5
-8.7900000000e-08     5     1     3     2
 4.6414533000e-03     5     1     3     3
 1.0000000000e-09     5     1     3     4
 1.7035000000e-06     5     1     3     5
 1.3989000000e-06     5     1     4     2
 1.3000000000e-09     5     1     4     3
 4.6408776000e-03     5     1     4     4
-9.6501000000e-06     5     1     4     5
-2.8477593000e-03     5     2     1     1
 1.4420000000e-07     5     2     1     3
-1.7463000000e-06     5     2     1     4
-1.1011376760e-01     5     2     1     5
-5.6066337000e-03     5     2     2     1
 1.5356000000e-06     5     2     2     3
-1.4931900000e-05     5     2     2     4
-4.0092317770e-01     5     2     2     5
 8.7900000000e-08     5     2     3     1
-2.5451200000e-04     5     2     3     3
 8.0000000000e-10     5     2     3     4
 5.8440000000e-07     5     2     3     5
-1.3989000000e-06     5     2     4     1
 8.0000000000e-10     5     2     4     3
-2.5507020000e-04     5     2     4     4
-3.4633000000e-06     5     2     4     5
-2.3991000000e-06     5     3     1     1
-1.4420000000e-07     5     3     1     2
-3.0000000000e-10     5     3     1     4
 1.7035000000e-06     5     3     1     5
-5.6300000000e-08     5     3     2     1
-1.5356000000e-06     5     3     2     2
 5.8440000000e-07     5     3     2     5
-4.6414533000e-03     5     3     3     1
 2.5451200000e-04     5     3     3     2
-1.2703600000e-05     5     3     3     4
-4.1680051580e-01     5     3     3     5
-1.3000000000e-09     5     3     4     1
-8.0000000000e-10     5     3     4     2
-1.2862000000e-06     5     3     4     4
 3.0000000000e-09     5     3     4     5
 2.3327000000e-05     5     4     1     1
 1.7463000000e-06     5     4     1     2
 3.0000000000e-10     5     4     1     3
-9.6501000000e-06     5     4     1     5
 3.4740000000e-07     5     4     2     1
 1.4931900000e-05     5     4     2     2
-3.4633000000e-06     5     4     2     5
-1.0000000000e-09     5     4     3     1
-8.0000000000e-10     5     4     3     2
 1.2703600000e-05     5     4     3     3
 3.0000000000e-09     5     4     3     5
-4.6408776000e-03     5     4     4     1
 2.5507020000e-04     5     4     4     2
 1.2862000000e-06     5     4     4     3
-4.1681080340e-01     5     4     4     5
 4.0104124540e-01     5     5     1     1
 1.1011376760e-01     5     5     1     2
-1.7035000000e-06     5     5     1     3
 9.6501000000e-06     5     5     1     4
 1.1011376760e-01     5     5     2     1
 4.0092317770e-01     5     5     2     2
-5.8440000000e-07     5     5     2     3
 3.4633000000e-06     5     5     2     4
-1.7035000000e-06     5     5     3     1
-5.8440000000e-07     5     5     3     2
 4.1680051580e-01     5     5     3     3
-3.0000000000e-09     5     5     3     4
 9.6501000000e-06     5     5     4     1
 3.4633000000e-06     5     5     4     2
-3.0000000000e-09     5     5     4     3
 4.1681080340e-01     5     5     4     4
0.0 0 0 0 0
 3.3408607990e-01     1     1     2     2
 9.3500000000e-08     1     1     2     3
-1.4097000000e-06     1     1     2     4
-2.8477593000e-03     1     1     2     5
 9.3500000000e-08     1     1     3     2
 3.6891062360e-01     1     1     3     3
-3.9000000000e-09     1     1     3     4
-2.3991000000e-06     1     1     3     5
-1.4097000000e-06     1     1     4     2
-3.9000000000e-09     1     1     4     3
 3.6891969380e-01     1     1     4     4
 2.3327000000e-05     1     1     4     5
-2.8477593000e-03     1     1     5     2
-2.3991000000e-06     1     1     5     3
 2.3327000000e-05     1     1     5     4
 4.0104124540e-01     1     1     5     5
-3.3408607990e-01     1     2     2     1
 1.1617000000e-06     1     2     2     3
-6.2091000000e-06     1     2     2     4
-5.6066337000e-03     1     2     2     5
-9.3500000000e-08     1     2     3     1
 1.0349486090e-01     1     2     3     3
-5.0000000000e-10     1     2     3     4
-5.6300000000e-08     1     2     3     5
 1.4097000000e-06     1     2     4     1
-3.0000000000e-10     1     2     4     3
 1.0349805650e-01     1     2     4     4
 3.4740000000e-07     1     2     4     5
 2.8477593000e-03     1     2     5     1
-1.4420000000e-07     1     2     5     3
 1.7463000000e-06     1     2     5     4
 1.1011376760e-01     1     2     5     5
-9.3500000000e-08     1     3     2     1
-1.1617000000e-06     1     3     2     2
-2.0000000000e-10     1     3     2     4
 8.7900000000e-08     1     3     2     5
-3.6891062360e-01     1     3     3     1
-1.0349486090e-01     1     3     3     2
-4.9854000000e-06     1     3     3     4
-4.6414533000e-03     1     3     3     5
 3.9000000000e-09     1     3     4     1
 3.0000000000e-10     1     3     4     2
-1.1761000000e-06     1     3     4     4
-1.0000000000e-09     1     3     4     5
 2.3991000000e-06     1     3     5     1
 1.4420000000e-07     1     3     5     2
 3.0000000000e-10     1     3     5     4
-1.7035000000e-06     1     3     5     5
 1.4097000000e-06     1     4     2     1
 6.2091000000e-06     1     4     2     2
 2.0000000000e-10     1     4     2     3
-1.3989000000e-06     1     4     2     5
 3.9000000000e-09     1     4     3     1
 5.0000000000e-10     1     4     3     2
 4.9854000000e-06     1     4     3     3
-1.3000000000e-09     1     4     3     5
-3.6891969380e-01     1     4     4     1
-1.0349805650e-01     1     4     4     2
 1.1761000000e-06     1     4     4     3
-4.6408776000e-03     1     4     4     5
-2.3327000000e-05     1     4     5     1
-1.7463000000e-06     1     4     5     2
-3.0000000000e-10     1     4     5     3
 9.6501000000e-06     1     4     5     5
 2.8477593000e-03     1     5     2     1
 5.6066337000e-03     1     5     2     2
-8.7900000000e-08     1     5     2     3
 1.3989000000e-06     1     5     2     4
 2.3991000000e-06     1     5     3     1
 5.6300000000e-08     1     5     3     2
 4.6414533000e-03     1     5     3     3
 1.3000000000e-09     1     5     3     4
-2.3327000000e-05     1     5     4     1
-3.4740000000e-07     1     5     4     2
 1.0000000000e-09     1     5     4     3
 4.6408776000e-03     1     5     4     4
-4.0104124540e-01     1     5     5     1
-1.1011376760e-01     1     5     5     2
 1.7035000000e-06     1     5     5     3
-9.6501000000e-06     1     5     5     4
-3.3408607990e-01     2     1     1     2
-9.3500000000e-08     2     1     1     3
 1.4097000000e-06     2     1     1     4
 2.8477593000e-03     2     1     1     5
 1.1617000000e-06     2     1     3     2
 1.0349486090e-01     2     1     3     3
-3.0000000000e-10     2     1     3     4
-1.4420000000e-07     2     1     3     5
-6.2091000000e-06     2     1     4     2
-5.0000000000e-10     2     1     4     3
 1.0349805650e-01     2     1     4     4
 1.7463000000e-06     2     1     4     5
-5.6066337000e-03     2     1     5     2
-5.6300000000e-08     2     1     5     3
 3.4740000000e-07     2     1     5     4
 1.1011376760e-01     2     1     5     5
 3.3408607990e-01     2     2     1     1
-1.1617000000e-06     2     2     1     3
 6.2091000000e-06     2     2     1     4
 5.6066337000e-03     2     2     1     5
-1.1617000000e-06     2     2     3     1
 3.7425230820e-01     2     2     3     3
-2.9000000000e-09     2     2     3     4
-1.5356000000e-06     2     2     3     5
 6.2091000000e-06     2     2     4     1
-2.9000000000e-09     2     2     4     3
 3.7426233980e-01     2     2     4     4
 1.4931900000e-05     2     2     4     5
 5.6066337000e-03     2     2     5     1
-1.5356000000e-06     2     2     5     3
 1.4931900000e-05     2     2     5     4
 4.0092317770e-01     2     2     5     5
 9.3500000000e-08     2     3     1     1
 1.1617000000e-06     2     3     1     2
 2.0000000000e-10     2     3     1     4
-8.7900000000e-08     2     3     1     5
-1.0349486090e-01     2     3     3     1
-3.7425230820e-01     2     3     3     2
-1.5268000000e-06     2     3     3     4
 2.5451200000e-04     2     3     3     5
 5.0000000000e-10     2     3     4     1
 2.9000000000e-09     2     3     4     2
-3.0220000000e-07     2     3     4     4
-8.0000000000e-10     2     3     4     5
 5.6300000000e-08     2     3     5     1
 1.5356000000e-06     2     3     5     2
-5.8440000000e-07     2     3     5     5
-1.4097000000e-06     2     4     1     1
-6.2091000000e-06     2     4     1     2
-2.0000000000e-10     2     4     1     3
 1.3989000000e-06     2     4     1     5
 3.0000000000e-10     2     4     3     1
 2.9000000000e-09     2     4     3     2
 1.5268000000e-06     2     4     3     3
-8.0000000000e-10     2     4     3     5
-1.0349805650e-01     2     4     4     1
-3.7426233980e-01     2     4     4     2
 3.0220000000e-07     2     4     4     3
 2.5507020000e-04     2     4     4     5
-3.4740000000e-07     2     4     5     1
-1.4931900000e-05     2     4     5     2
 3.4633000000e-06     2     4     5     5
-2.8477593000e-03     2     5     1     1
-5.6066337000e-03     2     5     1     2
 8.7900000000e-08     2     5     1     3
-1.3989000000e-06     2     5     1     4
 1.4420000000e-07     2     5     3     1
 1.5356000000e-06     2     5     3     2
-2.5451200000e-04     2     5     3     3
 8.0000000000e-10     2     5     3     4
-1.7463000000e-06     2     5     4     1
-1.4931900000e-05     2     5     4     2
 8.0000000000e-10     2     5     4     3
-2.5507020000e-04     2     5     4     4
-1.1011376760e-01     2     5     5     1
-4.0092317770e-01     2     5     5     2
 5.8440000000e-07     2     5     5     3
-3.4633000000e-06     2     5     5     4
-9.3500000000e-08     3     1     1     2
-3.6891062360e-01     3     1     1     3
 3.9000000000e-09     3     1     1     4
 2.3991000000e-06     3     1     1     5
-1.1617000000e-06     3     1     2     2
-1.0349486090e-01     3     1     2     3
 3.0000000000e-10     3     1     2     4
 1.4420000000e-07     3     1     2     5
-2.0000000000e-10     3     1     4     2
-4.9854000000e-06     3     1     4     3
-1.1761000000e-06     3     1     4     4
 3.0000000000e-10     3     1     4     5
 8.7900000000e-08     3     1     5     2
-4.6414533000e-03     3     1     5     3
-1.0000000000e-09     3     1     5     4
-1.7035000000e-06     3     1     5     5
 9.3500000000e-08     3     2     1     1
-1.0349486090e-01     3     2     1     3
 5.0000000000e-10     3     2     1     4
 5.6300000000e-08     3     2     1     5
 1.1617000000e-06     3     2     2     1
-3.7425230820e-01     3     2     2     3
 2.9000000000e-09     3     2     2     4
 1.5356000000e-06     3     2     2     5
 2.0000000000e-10     3     2     4     1
-1.5268000000e-06     3     2     4     3
-3.0220000000e-07     3     2     4     4
-8.7900000000e-08     3     2     5     1
 2.5451200000e-04     3     2     5     3
-8.0000000000e-10     3     2     5     4
-5.8440000000e-07     3     2     5     5
 3.6891062360e-01     3     3     1     1
 1.0349486090e-01     3     3     1     2
 4.9854000000e-06     3     3     1     4
 4.6414533000e-03     3     3     1     5
 1.0349486090e-01     3     3     2     1
 3.7425230820e-01     3     3     2     2
 1.5268000000e-06     3     3     2     4
-2.5451200000e-04     3     3     2     5
 4.9854000000e-06     3     3     4     1
 1.5268000000e-06     3     3     4     2
 3.9302502450e-01     3     3     4     4
 1.2703600000e-05     3     3     4     5
 4.6414533000e-03     3     3     5     1
-2.5451200000e-04     3     3     5     2
 1.2703600000e-05     3     3     5     4
 4.1680051580e-01     3     3     5     5
-3.9000000000e-09     3     4     1     1
-5.0000000000e-10     3     4     1     2
-4.9854000000e-06     3     4     1     3
 1.3000000000e-09     3     4     1     5
-3.0000000000e-10     3     4     2     1
-2.9000000000e-09     3     4     2     2
-1.5268000000e-06     3     4     2     3
 8.0000000000e-10     3     4     2     5
 1.1761000000e-06     3     4     4     1
 3.0220000000e-07     3     4     4     2
-3.9302502450e-01     3     4     4     3
 1.2862000000e-06     3     4     4     5
 1.0000000000e-09     3     4     5     1
 8.0000000000e-10     3     4     5     2
-1.2703600000e-05     3     4     5     3
-3.0000000000e-09     3     4     5     5
-2.3991000000e-06     3     5     1     1
-5.6300000000e-08     3     5     1     2
-4.6414533000e-03     3     5     1     3
-1.3000000000e-09     3     5     1     4
-1.4420000000e-07     3     5     2     1
-1.5356000000e-06     3     5     2     2
 2.5451200000e-04     3     5     2     3
-8.0000000000e-10     3     5     2     4
-3.0000000000e-10     3     5     4     1
-1.2703600000e-05     3     5     4     3
-1.2862000000e-06     3     5     4     4
 1.7035000000e-06     3     5     5     1
 5.8440000000e-07     3     5     5     2
-4.1680051580e-01     3     5     5     3
 3.0000000000e-09     3     5     5     4
 1.4097000000e-06     4     1     1     2
 3.9000000000e-09     4     1     1     3
-3.6891969380e-01     4     1     1     4
-2.3327000000e-05     4     1     1     5
 6.2091000000e-06     4     1     2     2
 5.0000000000e-10     4     1     2     3
-1.0349805650e-01     4     1     2     4
-1.7463000000e-06     4     1     2     5
 2.0000000000e-10     4     1     3     2
 4.9854000000e-06     4     1     3     3
 1.1761000000e-06     4     1     3     4
-3.0000000000e-10     4     1     3     5
-1.3989000000e-06     4     1     5     2
-1.3000000000e-09     4     1     5     3
-4.6408776000e-03     4     1     5     4
 9.6501000000e-06     4     1     5     5
-1.4097000000e-06     4     2     1     1
 3.0000000000e-10     4     2     1     3
-1.0349805650e-01     4     2     1     4
-3.4740000000e-07     4     2     1     5
-6.2091000000e-06     4     2     2     1
 2.9000000000e-09     4     2     2     3
-3.7426233980e-01     4     2     2     4
-1.4931900000e-05     4     2     2     5
-2.0000000000e-10     4     2     3     1
 1.5268000000e-06     4     2     3     3
 3.0220000000e-07     4     2     3     4
 1.3989000000e-06     4     2     5     1
-8.0000000000e-10     4     2     5     3
 2.5507020000e-04     4     2     5     4
 3.4633000000e-06     4     2     5     5
-3.9000000000e-09     4     3     1     1
-3.0000000000e-10     4     3     1     2
 1.1761000000e-06     4     3     1     4
 1.0000000000e-09     4     3     1     5
-5.0000000000e-10     4     3     2     1
-2.9000000000e-09     4     3     2     2
 3.0220000000e-07     4     3     2     4
 8.0000000000e-10     4     3     2     5
-4.9854000000e-06     4     3     3     1
-1.5268000000e-06     4     3     3     2
-3.9302502450e-01     4     3     3     4
-1.2703600000e-05     4     3     3     5
 1.3000000000e-09     4     3     5     1
 8.0000000000e-10     4     3     5     2
 1.2862000000e-06     4     3     5     4
-3.0000000000e-09     4     3     5     5
 3.6891969380e-01     4     4     1     1
 1.0349805650e-01     4     4     1     2
-1.1761000000e-06     4     4     1     3
 4.6408776000e-03     4     4     1     5
 1.0349805650e-01     4     4     2     1
 3.7426233980e-01     4     4     2     2
-3.0220000000e-07     4     4     2     3
-2.5507020000e-04     4     4     2     5
-1.1761000000e-06     4     4     3     1
-3.0220000000e-07     4     4     3     2
 3.9302502450e-01     4     4     3     3
-1.2862000000e-06     4     4     3     5
 4.6408776000e-03     4     4     5     1
-2.5507020000e-04     4     4     5     2
-1.2862000000e-06     4     4     5     3
 4.1681080340e-01     4     4     5     5
 2.3327000000e-05     4     5     1     1
 3.4740000000e-07     4     5     1     2
-1.0000000000e-09     4     5     1     3
-4.6408776000e-03     4     5     1     4
 1.7463000000e-06     4     5     2     1
 1.4931900000e-05     4     5     2     2
-8.0000000000e-10     4     5     2     3
 2.5507020000e-04     4     5     2     4
 3.0000000000e-10     4     5     3     1
 1.2703600000e-05     4     5     3     3
 1.2862000000e-06     4     5     3     4
-9.6501000000e-06     4     5     5     1
-3.4633000000e-06     4     5     5     2
 3.0000000000e-09     4     5     5     3
-4.1681080340e-01     4     5     5     4
 2.8477593000e-03     5     1     1     2
 2.3991000000e-06     5     1     1     3
-2.3327000000e-05     5     1     1     4
-4.0104124540e-01     5     1     1     5
 5.6066337000e-03     5     1     2     2
 5.6300000000e-08     5     1     2     3