&FCI NORB=  5,NELEC=  2,MS2=0,
 ORBSYM=1,1,1,1,1
 ISYM=1,
&END
 3.2010093560e-01     1     1     2     2
 6.5059000000e-06     1     1     2     3
 2.9442400000e-05     1     1     2     4
 1.1567623000e-02     1     1     2     5
 6.5059000000e-06     1     1     3     2
 3.4935447700e-01     1     1     3     3
 1.9200000000e-08     1     1     3     4
 7.0409000000e-06     1     1     3     5
 2.9442400000e-05     1     1     4     2
 1.9200000000e-08     1     1     4     3
 3.4935811490e-01     1     1     4     4
 3.3066700000e-05     1     1     4     5
 1.1567623000e-02     1     1     5     2
 7.0409000000e-06     1     1     5     3
 3.3066700000e-05     1     1     5     4
 3.6577674450e-01     1     1     5     5
-3.2010093560e-01     1     2     2     1
 1.6229100000e-05     1     2     2     3
 7.5478000000e-05     1     2     2     4
 2.9072033800e-02     1     2     2     5
-6.5059000000e-06     1     2     3     1
 9.3361845400e-02     1     2     3     3
 4.3000000000e-09     1     2     3     4
 1.3095000000e-06     1     2     3     5
-2.9442400000e-05     1     2     4     1
 4.2000000000e-09     1     2     4     3
 9.3363238400e-02     1     2     4     4
 6.0581000000e-06     1     2     4     5
-1.1567623000e-02     1     2     5     1
 1.5152000000e-06     1     2     5     3
 7.2833000000e-06     1     2     5     4
 9.7452473200e-02     1     2     5     5
-6.5059000000e-06     1     3     2     1
-1.6229100000e-05     1     3     2     2
 1.0000000000e-10     1     3     2     4
-2.0570000000e-07     1     3     2     5
-3.4935447700e-01     1     3     3     1
-9.3361845400e-02     1     3     3     2
 7.1930300000e-05     1     3     3     4
 2.7868600600e-02     1     3     3     5
-1.9200000000e-08     1     3     4     1
-4.2000000000e-09     1     3     4     2
-1.5341200000e-05     1     3     4     4
-1.3200000000e-08     1     3     4     5
-7.0409000000e-06     1     3     5     1
-1.5152000000e-06     1     3     5     2
 2.0000000000e-10     1     3     5     4
-1.6121000000e-05     1     3     5     5
-2.9442400000e-05     1     4     2     1
-7.5478000000e-05     1     4     2     2
-1.0000000000e-10     1     4     2     3
-1.2252000000e-06     1     4     2     5
-1.9200000000e-08     1     4     3     1
-4.3000000000e-09     1     4     3     2
-7.1930300000e-05     1     4     3     3
-1.3400000000e-08     1     4     3     5
-3.4935811490e-01     1     4     4     1
-9.3363238400e-02     1     4     4     2
 1.5341200000e-05     1     4     4     3
 2.7868541200e-02     1     4     4     5
-3.3066700000e-05     1     4     5     1
-7.2833000000e-06     1     4     5     2
-2.0000000000e-10     1     4     5     3
-7.5330500000e-05     1     4     5     5
-1.1567623000e-02     1     5     2     1
-2.9072033800e-02     1     5     2     2
 2.0570000000e-07     1     5     2     3
 1.2252000000e-06     1     5     2     4
-7.0409000000e-06     1     5     3     1
-1.3095000000e-06     1     5     3     2
-2.7868600600e-02     1     5     3     3
 1.3400000000e-08     1     5     3     4
-3.3066700000e-05     1     5     4     1
-6.0581000000e-06     1     5     4     2
 1.3200000000e-08     1     5     4     3
-2.7868541200e-02     1     5     4     4
-3.6577674450e-01     1     5     5     1
-9.7452473200e-02     1     5     5     2
 1.6121000000e-05     1     5     5     3
 7.5330500000e-05     1     5     5     4
-3.2010093560e-01     2     1     1     2
-6.5059000000e-06     2     1     1     3
-2.9442400000e-05     2     1     1     4
-1.1567623000e-02     2     1     1     5
 1.6229100000e-05     2     1     3     2
 9.3361845400e-02     2     1     3     3
 4.2000000000e-09     2     1     3     4
 1.5152000000e-06     2     1     3     5
 7.5478000000e-05     2     1     4     2
 4.3000000000e-09     2     1     4     3
 9.3363238400e-02     2     1     4     4
 7.2833000000e-06     2     1     4     5
 2.9072033800e-02     2     1     5     2
 1.3095000000e-06     2     1     5     3
 6.0581000000e-06     2     1     5     4
 9.7452473200e-02     2     1     5     5
 3.2010093560e-01     2     2     1     1
-1.6229100000e-05     2     2     1     3
-7.5478000000e-05     2     2     1     4
-2.9072033800e-02     2     2     1     5
-1.6229100000e-05     2     2     3     1
 3.5971591970e-01     2     2     3     3
 1.9300000000e-08     2     2     3     4
 6.9030000000e-06     2     2     3     5
-7.5478000000e-05     2     2     4     1
 1.9300000000e-08     2     2     4     3
 3.5972004560e-01     2     2     4     4
 3.2441900000e-05     2     2     4     5
-2.9072033800e-02     2     2     5     1
 6.9030000000e-06     2     2     5     3
 3.2441900000e-05     2     2     5     4
 3.7634043650e-01     2     2     5     5
 6.5059000000e-06     2     3     1     1
 1.6229100000e-05     2     3     1     2
-1.0000000000e-10     2     3     1     4
 2.0570000000e-07     2     3     1     5
-9.3361845400e-02     2     3     3     1
-3.5971591970e-01     2     3     3     2
-2.1419800000e-05     2     3     3     4
-8.4414911000e-03     2     3     3     5
-4.3000000000e-09     2     3     4     1
-1.9300000000e-08     2     3     4     2
 4.7997000000e-06     2     3     4     4
-1.2000000000e-09     2     3     4     5
-1.3095000000e-06     2     3     5     1
-6.9030000000e-06     2     3     5     2
 4.7611000000e-06     2     3     5     5
 2.9442400000e-05     2     4     1     1
 7.5478000000e-05     2     4     1     2
 1.0000000000e-10     2     4     1     3
 1.2252000000e-06     2     4     1     5
-4.2000000000e-09     2     4     3     1
-1.9300000000e-08     2     4     3     2
 2.1419800000e-05     2     4     3     3
-1.2000000000e-09     2     4     3     5
-9.3363238400e-02     2     4     4     1
-3.5972004560e-01     2     4     4     2
-4.7997000000e-06     2     4     4     3
-8.4416457000e-03     2     4     4     5
-6.0581000000e-06     2     4     5     1
-3.2441900000e-05     2     4     5     2
 2.1154600000e-05     2     4     5     5
 1.1567623000e-02     2     5     1     1
 2.9072033800e-02     2     5     1     2
-2.0570000000e-07     2     5     1     3
-1.2252000000e-06     2     5     1     4
-1.5152000000e-06     2     5     3     1
-6.9030000000e-06     2     5     3     2
 8.4414911000e-03     2     5     3     3
 1.2000000000e-09     2     5     3     4
-7.2833000000e-06     2     5     4     1
-3.2441900000e-05     2     5     4     2
 1.2000000000e-09     2     5     4     3
 8.4416457000e-03     2     5     4     4
-9.7452473200e-02     2     5     5     1
-3.7634043650e-01     2     5     5     2
-4.7611000000e-06     2     5     5     3
-2.1154600000e-05     2     5     5     4
-6.5059000000e-06     3     1     1     2
-3.4935447700e-01     3     1     1     3
-1.9200000000e-08     3     1     1     4
-7.0409000000e-06     3     1     1     5
-1.6229100000e-05     3     1     2     2
-9.3361845400e-02     3     1     2     3
-4.2000000000e-09     3     1     2     4
-1.5152000000e-06     3     1     2     5
 1.0000000000e-10     3     1     4     2
 7.1930300000e-05     3     1     4     3
-1.5341200000e-05     3     1     4     4
 2.0000000000e-10     3     1     4     5
-2.0570000000e-07     3     1     5     2
 2.7868600600e-02     3     1     5     3
-1.3200000000e-08     3     1     5     4
-1.6121000000e-05     3     1     5     5
 6.5059000000e-06     3     2     1     1
-9.3361845400e-02     3     2     1     3
-4.3000000000e-09     3     2     1     4
-1.3095000000e-06     3     2     1     5
 1.6229100000e-05     3     2     2     1
-3.5971591970e-01     3     2     2     3
-1.9300000000e-08     3     2     2     4
-6.9030000000e-06     3     2     2     5
-1.0000000000e-10     3     2     4     1
-2.1419800000e-05     3     2     4     3
 4.7997000000e-06     3     2     4     4
 2.0570000000e-07     3     2     5     1
-8.4414911000e-03     3     2     5     3
-1.2000000000e-09     3     2     5     4
 4.7611000000e-06     3     2     5     5
 3.4935447700e-01     3     3     1     1
 9.3361845400e-02     3     3     1     2
-7.1930300000e-05     3     3     1     4
-2.7868600600e-02     3     3     1     5
 9.3361845400e-02     3     3     2     1
 3.5971591970e-01     3     3     2     2
 2.1419800000e-05     3     3     2     4
 8.4414911000e-03     3     3     2     5
-7.1930300000e-05     3     3     4     1
 2.1419800000e-05     3     3     4     2
 3.7255735550e-01     3     3     4     4
 2.7763900000e-05     3     3     4     5
-2.7868600600e-02     3     3     5     1
 8.4414911000e-03     3     3     5     2
 2.7763900000e-05     3     3     5     4
 3.8686789630e-01     3     3     5     5
 1.9200000000e-08     3     4     1     1
 4.3000000000e-09     3     4     1     2
 7.1930300000e-05     3     4     1     3
 1.3400000000e-08     3     4     1     5
 4.2000000000e-09     3     4     2     1
 1.9300000000e-08     3     4     2     2
-2.1419800000e-05     3     4     2     3
 1.2000000000e-09     3     4     2     5
 1.5341200000e-05     3     4     4     1
-4.7997000000e-06     3     4     4     2
-3.7255735550e-01     3     4     4     3
-5.8880000000e-06     3     4     4     5
 1.3200000000e-08     3     4     5     1
 1.2000000000e-09     3     4     5     2
-2.7763900000e-05     3     4     5     3
 1.3200000000e-08     3     4     5     5
 7.0409000000e-06     3     5     1     1
 1.3095000000e-06     3     5     1     2
 2.7868600600e-02     3     5     1     3
-1.3400000000e-08     3     5     1     4
 1.5152000000e-06     3     5     2     1
 6.9030000000e-06     3     5     2     2
-8.4414911000e-03     3     5     2     3
-1.2000000000e-09     3     5     2     4
-2.0000000000e-10     3     5     4     1
-2.7763900000e-05     3     5     4     3
 5.8880000000e-06     3     5     4     4
 1.6121000000e-05     3     5     5     1
-4.7611000000e-06     3     5     5     2
-3.8686789630e-01     3     5     5     3
-1.3200000000e-08     3     5     5     4
-2.9442400000e-05     4     1     1     2
-1.9200000000e-08     4     1     1     3
-3.4935811490e-01     4     1     1     4
-3.3066700000e-05     4     1     1     5
-7.5478000000e-05     4     1     2     2
-4.3000000000e-09     4     1     2     3
-9.3363238400e-02     4     1     2     4
-7.2833000000e-06     4     1     2     5
-1.0000000000e-10     4     1     3     2
-7.1930300000e-05     4     1     3     3
 1.5341200000e-05     4     1     3     4
-2.0000000000e-10     4     1     3     5
-1.2252000000e-06     4     1     5     2
-1.3400000000e-08     4     1     5     3
 2.7868541200e-02     4     1     5     4
-7.5330500000e-05     4     1     5     5
 2.9442400000e-05     4     2     1     1
-4.2000000000e-09     4     2     1     3
-9.3363238400e-02     4     2     1     4
-6.0581000000e-06     4     2     1     5
 7.5478000000e-05     4     2     2     1
-1.9300000000e-08     4     2     2     3
-3.5972004560e-01     4     2     2     4
-3.2441900000e-05     4     2     2     5
 1.0000000000e-10     4     2     3     1
 2.1419800000e-05     4     2     3     3
-4.7997000000e-06     4     2     3     4
 1.2252000000e-06     4     2     5     1
-1.2000000000e-09     4     2     5     3
-8.4416457000e-03     4     2     5     4
 2.1154600000e-05     4     2     5     5
 1.9200000000e-08     4     3     1     1
 4.2000000000e-09     4     3     1     2
 1.5341200000e-05     4     3     1     4
 1.3200000000e-08     4     3     1     5
 4.3000000000e-09     4     3     2     1
 1.9300000000e-08     4     3     2     2
-4.7997000000e-06     4     3     2     4
 1.2000000000e-09     4     3     2     5
 7.1930300000e-05     4     3     3     1
-2.1419800000e-05     4     3     3     2
-3.7255735550e-01     4     3     3     4
-2.7763900000e-05     4     3     3     5
 1.3400000000e-08     4     3     5     1
 1.2000000000e-09     4     3     5     2
-5.8880000000e-06     4     3     5     4
 1.3200000000e-08     4     3     5     5
 3.4935811490e-01     4     4     1     1
 9.3363238400e-02     4     4     1     2
-1.5341200000e-05     4     4     1     3
-2.7868541200e-02     4     4     1     5
 9.3363238400e-02     4     4     2     1
 3.5972004560e-01     4     4     2     2
 4.7997000000e-06     4     4     2     3
 8.4416457000e-03     4     4     2     5
-1.5341200000e-05     4     4     3     1
 4.7997000000e-06     4     4     3     2
 3.7255735550e-01     4     4     3     3
 5.8880000000e-06     4     4     3     5
-2.7868541200e-02     4     4     5     1
 8.4416457000e-03     4     4     5     2
 5.8880000000e-06     4     4     5     3
 3.8687174690e-01     4     4     5     5
 3.3066700000e-05     4     5     1     1
 6.0581000000e-06     4     5     1     2
-1.3200000000e-08     4     5     1     3
 2.7868541200e-02     4     5     1     4
 7.2833000000e-06     4     5     2     1
 3.2441900000e-05     4     5     2     2
-1.2000000000e-09     4     5     2     3
-8.4416457000e-03     4     5     2     4
 2.0000000000e-10     4     5     3     1
 2.7763900000e-05     4     5     3     3
-5.8880000000e-06     4     5     3     4
 7.5330500000e-05     4     5     5     1
-2.1154600000e-05     4     5     5     2
-1.3200000000e-08     4     5     5     3
-3.8687174690e-01     4     5     5     4
-1.1567623000e-02     5     1     1     2
-7.0409000000e-06     5     1     1     3
-3.3066700000e-05     5     1     1     4
-3.6577674450e-01     5     1     1     5
-2.9072033800e-02     5     1     2     2
-1.3095000000e-06     5     1     2     3
-6.0581000000e-06     5     1     2     4
-9.7452473200e-02     5     1     2     5
 2.0570000000e-07     5     1     3     2
-2.7868600600e-02     5     1     3     3
 1.3200000000e-08     5     1     3     4
 1.6121000000e-05     5     1     3     5
 1.2252000000e-06     5     1     4     2
 1.3400000000e-08     5     1     4     3
-2.7868541200e-02     5     1     4     4
 7.5330500000e-05     5     1     4     5
 1.1567623000e-02     5     2     1     1
-1.5152000000e-06     5     2     1     3
-7.2833000000e-06     5     2     1     4
-9.7452473200e-02     5     2     1     5
 2.9072033800e-02     5     2     2     1
-6.9030000000e-06     5     2     2     3
-3.2441900000e-05     5     2     2     4
-3.7634043650e-01     5     2     2     5
-2.0570000000e-07     5     2     3     1
 8.4414911000e-03     5     2     3     3
 1.2000000000e-09     5     2     3     4
-4.7611000000e-06     5     2     3     5
-1.2252000000e-06     5     2     4     1
 1.2000000000e-09     5     2     4     3
 8.4416457000e-03     5     2     4     4
-2.1154600000e-05     5     2     4     5
 7.0409000000e-06     5     3     1     1
 1.5152000000e-06     5     3     1     2
-2.0000000000e-10     5     3     1     4
 1.6121000000e-05     5     3     1     5
 1.3095000000e-06     5     3     2     1
 6.9030000000e-06     5     3     2     2
-4.7611000000e-06     5     3     2     5
 2.7868600600e-02     5     3     3     1
-8.4414911000e-03     5     3     3     2
-2.7763900000e-05     5     3     3     4
-3.8686789630e-01     5     3     3     5
-1.3400000000e-08     5     3     4     1
-1.2000000000e-09     5     3     4     2
 5.8880000000e-06     5     3     4     4
-1.3200000000e-08     5     3     4     5
 3.3066700000e-05     5     4     1     1
 7.2833000000e-06     5     4     1     2
 2.0000000000e-10     5     4     1     3
 7.5330500000e-05     5     4     1     5
 6.0581000000e-06     5     4     2     1
 3.2441900000e-05     5     4     2     2
-2.1154600000e-05     5     4     2     5
-1.3200000000e-08     5     4     3     1
-1.2000000000e-09     5     4     3     2
 2.7763900000e-05     5     4     3     3
-1.3200000000e-08     5     4     3     5
 2.7868541200e-02     5     4     4     1
-8.4416457000e-03     5     4     4     2
-5.8880000000e-06     5     4     4     3
-3.8687174690e-01     5     4     4     5
 3.6577674450e-01     5     5     1     1
 9.7452473200e-02     5     5     1     2
-1.6121000000e-05     5     5     1     3
-7.5330500000e-05     5     5     1     4
 9.7452473200e-02     5     5     2     1
 3.7634043650e-01     5     5     2     2
 4.7611000000e-06     5     5     2     3
 2.1154600000e-05     5     5     2     4
-1.6121000000e-05     5     5     3     1
 4.7611000000e-06     5     5     3     2
 3.8686789630e-01     5     5     3     3
 1.3200000000e-08     5     5     3     4
-7.5330500000e-05     5     5     4     1
 2.1154600000e-05     5     5     4     2
 1.3200000000e-08     5     5     4     3
 3.8687174690e-01     5     5     4     4
0.0 0 0 0 0
 3.2010093560e-01     1     1     2     2
 6.5059000000e-06     1     1     2     3
 2.9442400000e-05     1     1     2     4
 1.1567623000e-02     1     1     2     5
 6.5059000000e-06     1     1     3     2
 3.4935447700e-01     1     1     3     3
 1.9200000000e-08     1     1     3     4
 7.0409000000e-06     1     1     3     5
 2.9442400000e-05     1     1     4     2
 1.9200000000e-08     1     1     4     3
 3.4935811490e-01     1     1     4     4
 3.3066700000e-05     1     1     4     5
 1.1567623000e-02     1     1     5     2
 7.0409000000e-06     1     1     5     3
 3.3066700000e-05     1     1     5     4
 3.6577674450e-01     1     1     5     5
-3.2010093560e-01     1     2     2     1
 1.6229100000e-05     1     2     2     3
 7.5478000000e-05     1     2     2     4
 2.9072033800e-02     1     2     2     5
-6.5059000000e-06     1     2     3     1
 9.3361845400e-02     1     2     3     3
 4.3000000000e-09     1     2     3     4
 1.3095000000e-06     1     2     3     5
-2.9442400000e-05     1     2     4     1
 4.2000000000e-09     1     2     4     3
 9.3363238400e-02     1     2     4     4
 6.0581000000e-06     1     2     4     5
-1.1567623000e-02     1     2     5     1
 1.5152000000e-06     1     2     5     3
 7.2833000000e-06     1     2     5     4
 9.7452473200e-02     1     2     5     5
-6.5059000000e-06     1     3     2     1
-1.6229100000e-05     1     3     2     2
 1.0000000000e-10     1     3     2     4
-2.0570000000e-07     1     3     2     5
-3.4935447700e-01     1     3     3     1
-9.3361845400e-02     1     3     3     2
 7.1930300000e-05     1     3     3     4
 2.7868600600e-02     1     3     3     5
-1.9200000000e-08     1     3     4     1
-4.2000000000e-09     1     3     4     2
-1.5341200000e-05     1     3     4     4
-1.3200000000e-08     1     3     4     5
-7.0409000000e-06     1     3     5     1
-1.5152000000e-06     1     3     5     2
 2.0000000000e-10     1     3     5     4
-1.6121000000e-05     1     3     5     5
-2.9442400000e-05     1     4     2     1
-7.5478000000e-05     1     4     2     2
-1.0000000000e-10     1     4     2     3
-1.2252000000e-06     1     4     2     5
-1.9200000000e-08     1     4     3     1
-4.3000000000e-09     1     4     3     2
-7.1930300000e-05     1     4     3     3
-1.3400000000e-08     1     4     3     5
-3.4935811490e-01     1     4     4     1
-9.3363238400e-02     1     4     4     2
 1.5341200000e-05     1     4     4     3
 2.7868541200e-02     1     4     4     5
-3.3066700000e-05     1     4     5     1
-7.2833000000e-06     1     4     5     2
-2.0000000000e-10     1     4     5     3
-7.5330500000e-05     1     4     5     5
-1.1567623000e-02     1     5     2     1
-2.9072033800e-02     1     5     2     2
 2.0570000000e-07     1     5     2     3
 1.2252000000e-06     1     5     2     4
-7.0409000000e-06     1     5     3     1
-1.3095000000e-06     1     5     3     2
-2.7868600600e-02     1     5     3     3
 1.3400000000e-08     1     5     3     4
-3.3066700000e-05     1     5     4     1
-6.0581000000e-06     1     5     4     2
 1.3200000000e-08     1     5     4     3
-2.7868541200e-02     1     5     4     4
-3.6577674450e-01     1     5     5     1
-9.7452473200e-02     1     5     5     2
 1.6121000000e-05     1     5     5     3
 7.5330500000e-05     1     5     5     4
-3.2010093560e-01     2     1     1     2
-6.5059000000e-06     2     1     1     3
-2.9442400000e-05     2     1     1     4
-1.1567623000e-02     2     1     1     5
 1.6229100000e-05     2     1     3     2
 9.3361845400e-02     2     1     3     3
 4.2000000000e-09     2     1     3     4
 1.5152000000e-06     2     1     3     5
 7.5478000000e-05     2     1     4     2
 4.3000000000e-09     2     1     4     3
 9.3363238400e-02     2     1     4     4
 7.2833000000e-06     2     1     4     5
 2.9072033800e-02     2     1     5     2
 1.3095000000e-06     2     1     5     3
 6.0581000000e-06     2     1     5     4
 9.7452473200e-02     2     1     5     5
 3.2010093560e-01     2     2     1     1
-1.6229100000e-05     2     2     1     3
-7.5478000000e-05     2     2     1     4
-2.9072033800e-02     2     2     1     5
-1.6229100000e-05     2     2     3     1
 3.5971591970e-01     2     2     3     3
 1.9300000000e-08     2     2     3     4
 6.9030000000e-06     2     2     3     5
-7.5478000000e-05     2     2     4     1
 1.9300000000e-08     2     2     4     3
 3.5972004560e-01     2     2     4     4
 3.2441900000e-05     2     2     4     5
-2.9072033800e-02     2     2     5     1
 6.9030000000e-06     2     2     5     3
 3.2441900000e-05     2     2     5     4
 3.7634043650e-01     2     2     5     5
 6.5059000000e-06     2     3     1     1
 1.6229100000e-05     2     3     1     2
-1.0000000000e-10     2     3     1     4
 2.0570000000e-07     2     3     1     5
-9.3361845400e-02     2     3     3     1
-3.5971591970e-01     2     3     3     2
-2.1419800000e-05     2     3     3     4
-8.4414911000e-03     2     3     3     5
-4.3000000000e-09     2     3     4     1
-1.9300000000e-08     2     3     4     2
 4.7997000000e-06     2     3     4     4
-1.2000000000e-09     2     3     4     5
-1.3095000000e-06     2     3     5     1
-6.9030000000e-06     2     3     5     2
 4.7611000000e-06     2     3     5     5
 2.9442400000e-05     2     4     1     1
 7.5478000000e-05     2     4     1     2
 1.0000000000e-10     2     4     1     3
 1.2252000000e-06     2     4     1     5
-4.2000000000e-09     2     4     3     1
-1.9300000000e-08     2     4     3     2
 2.1419800000e-05     2     4     3     3
-1.2000000000e-09     2     4     3     5
-9.3363238400e-02     2     4     4     1
-3.5972004560e-01     2     4     4     2
-4.7997000000e-06     2     4     4     3
-8.4416457000e-03     2     4     4     5
-6.0581000000e-06     2     4     5     1
-3.2441900000e-05     2     4     5     2
 2.1154600000e-05     2     4     5     5
 1.1567623000e-02     2     5     1     1
 2.9072033800e-02     2     5     1     2
-2.0570000000e-07     2     5     1     3
-1.2252000000e-06     2     5     1     4
-1.5152000000e-06     2     5     3     1
-6.9030000000e-06     2     5     3     2
 8.4414911000e-03     2     5     3     3
 1.2000000000e-09     2     5     3     4
-7.2833000000e-06     2     5     4     1
-3.2441900000e-05     2     5     4     2
 1.2000000000e-09     2     5     4     3
 8.4416457000e-03     2     5     4     4
-9.7452473200e-02     2     5     5     1
-3.7634043650e-01     2     5     5     2
-4.7611000000e-06     2     5     5     3
-2.1154600000e-05     2     5     5     4
-6.5059000000e-06     3     1     1     2
-3.4935447700e-01     3     1     1     3
-1.9200000000e-08     3     1     1     4
-7.0409000000e-06     3     1     1     5
-1.6229100000e-05     3     1     2     2
-9.3361845400e-02     3     1     2     3
-4.2000000000e-09     3     1     2     4
-1.5152000000e-06     3     1     2     5
 1.0000000000e-10     3     1     4     2
 7.1930300000e-05     3     1     4     3
-1.5341200000e-05     3     1     4     4
 2.0000000000e-10     3     1     4     5
-2.0570000000e-07     3     1     5     2
 2.7868600600e-02     3     1     5     3
-1.3200000000e-08     3     1     5     4
-1.6121000000e-05     3     1     5     5
 6.5059000000e-06     3     2     1     1
-9.3361845400e-02     3     2     1     3
-4.3000000000e-09     3     2     1     4
-1.3095000000e-06     3     2     1     5
 1.6229100000e-05     3     2     2     1
-3.5971591970e-01     3     2     2     3
-1.9300000000e-08     3     2     2     4
-6.9030000000e-06     3     2     2     5
-1.0000000000e-10     3     2     4     1
-2.1419800000e-05     3     2     4     3
 4.7997000000e-06     3     2     4     4
 2.0570000000e-07     3     2     5     1
-8.4414911000e-03     3     2     5     3
-1.2000000000e-09     3     2     5     4
 4.7611000000e-06     3     2     5     5
 3.4935447700e-01     3     3     1     1
 9.3361845400e-02     3     3     1     2
-7.1930300000e-05     3     3     1     4
-2.7868600600e-02     3     3     1     5
 9.3361845400e-02     3     3     2     1
 3.5971591970e-01     3     3     2     2
 2.1419800000e-05     3     3     2     4
 8.4414911000e-03     3     3     2     5
-7.1930300000e-05     3     3     4     1
 2.1419800000e-05     3     3     4     2
 3.7255735550e-01     3     3     4     4
 2.7763900000e-05     3     3     4     5
-2.7868600600e-02     3     3     5     1
 8.4414911000e-03     3     3     5     2
 2.7763900000e-05     3     3     5     4
 3.8686789630e-01     3     3     5     5
 1.9200000000e-08     3     4     1     1
 4.3000000000e-09     3     4     1     2
 7.1930300000e-05     3     4     1     3
 1.3400000000e-08     3     4     1     5
 4.2000000000e-09     3     4     2     1
 1.9300000000e-08     3     4     2     2
-2.1419800000e-05     3     4     2     3
 1.2000000000e-09     3     4     2     5
 1.5341200000e-05     3     4     4     1
-4.7997000000e-06     3     4     4     2
-3.7255735550e-01     3     4     4     3
-5.8880000000e-06     3     4     4     5
 1.3200000000e-08     3     4     5     1
 1.2000000000e-09     3     4     5     2
-2.7763900000e-05     3     4     5     3
 1.3200000000e-08     3     4     5     5
 7.0409000000e-06     3     5     1     1
 1.3095000000e-06     3     5     1     2
 2.7868600600e-02     3     5     1     3
-1.3400000000e-08     3     5     1     4
 1.5152000000e-06     3     5     2     1
 6.9030000000e-06     3     5     2     2
-8.4414911000e-03     3     5     2     3
-1.2000000000e-09     3     5     2     4
-2.0000000000e-10     3     5     4     1
-2.7763900000e-05     3     5     4     3
 5.8880000000e-06     3     5     4     4
 1.6121000000e-05     3     5     5     1
-4.7611000000e-06     3     5     5     2
-3.8686789630e-01     3     5     5     3
-1.3200000000e-08     3     5     5     4
-2.9442400000e-05     4     1     1     2
-1.9200000000e-08     4     1     1     3
-3.4935811490e-01     4     1     1     4
-3.3066700000e-05     4     1     1     5
-7.5478000000e-05     4     1     2     2
-4.3000000000e-09     4     1     2     3
-9.3363238400e-02     4     1     2     4
-7.2833000000e-06     4     1     2     5
-1.0000000000e-10     4     1     3     2
-7.1930300000e-05     4     1     3     3
 1.5341200000e-05     4     1     3     4
-2.0000000000e-10     4     1     3     5
-1.2252000000e-06     4     1     5     2
-1.3400000000e-08     4     1     5     3
 2.7868541200e-02     4     1     5     4
-7.5330500000e-05     4     1     5     5
 2.9442400000e-05     4     2     1     1
-4.2000000000e-09     4     2     1     3
-9.3363238400e-02     4     2     1     4
-6.0581000000e-06     4     2     1     5
 7.5478000000e-05     4     2     2     1
-1.9300000000e-08     4     2     2     3
-3.5972004560e-01     4     2     2     4
-3.2441900000e-05     4     2     2     5
 1.0000000000e-10     4     2     3     1
 2.1419800000e-05     4     2     3     3
-4.7997000000e-06     4     2     3     4
 1.2252000000e-06     4     2     5     1
-1.2000000000e-09     4     2     5     3
-8.4416457000e-03     4     2     5     4
 2.1154600000e-05     4     2     5     5
 1.9200000000e-08     4     3     1     1
 4.2000000000e-09     4     3     1     2
 1.5341200000e-05     4     3     1     4
 1.3200000000e-08     4     3     1     5
 4.3000000000e-09     4     3     2     1
 1.9300000000e-08     4     3     2     2
-4.7997000000e-06     4     3     2     4
 1.2000000000e-09     4     3     2     5
 7.1930300000e-05     4     3     3     1
-2.1419800000e-05     4     3     3     2
-3.7255735550e-01     4     3     3     4
-2.7763900000e-05     4     3     3     5
 1.3400000000e-08     4     3     5     1
 1.2000000000e-09     4     3     5     2
-5.8880000000e-06     4     3     5     4
 1.3200000000e-08     4     3     5     5
 3.4935811490e-01     4     4     1     1
 9.3363238400e-02     4     4     1     2
-1.5341200000e-05     4     4     1     3
-2.7868541200e-02     4     4     1     5
 9.3363238400e-02     4     4     2     1
 3.5972004560e-01     4     4     2     2
 4.7997000000e-06     4     4     2     3
 8.4416457000e-03     4     4     2     5
-1.5341200000e-05     4     4     3     1
 4.7997000000e-06     4     4     3     2
 3.7255735550e-01     4     4     3     3
 5.8880000000e-06     4     4     3     5
-2.7868541200e-02     4     4     5     1
 8.4416457000e-03     4     4     5     2
 5.8880000000e-06     4     4     5     3
 3.8687174690e-01     4     4     5     5
 3.3066700000e-05     4     5     1     1
 6.0581000000e-06     4     5     1     2
-1.3200000000e-08     4     5     1     3
 2.7868541200e-02     4     5     1     4
 7.2833000000e-06     4     5     2     1
 3.2441900000e-05     4     5     2     2
-1.2000000000e-09     4     5     2     3
-8.4416457000e-03     4     5     2     4
 2.0000000000e-10     4     5     3     1
 2.7763900000e-05     4     5     3     3
-5.8880000000e-06     4     5     3     4
 7.5330500000e-05     4     5     5     1
-2.1154600000e-05     4     5     5     2
-1.3200000000e-08     4     5     5     3
-3.8687174690e-01     4     5     5     4
-1.1567623000e-02     5     1     1     2
-7.0409000000e-06     5     1     1     3
-3.3066700000e-05     5     1     1     4
-3.6577674450e-01     5     1     1     5
-2.9072033800e-02     5     1     2     2
-1.3095000000e-06     5     1     2     3