&FCI NORB=  5,NELEC=  2,MS2=0,
 ORBSYM=1,1,1,1,1
 ISYM=1,
&END
 3.0963364110e-01     1     1     2     2
-2.2391910000e-04     1     1     2     3
-4.3375960000e-04     1     1     2     4
 1.2039447300e-02     1     1     2     5
-2.2391910000e-04     1     1     3     2
 3.3820061060e-01     1     1     3     3
 4.7451000000e-06     1     1     3     4
-1.2783240000e-04     1     1     3     5
-4.3375960000e-04     1     1     4     2
 4.7451000000e-06     1     1     4     3
 3.3821165410e-01     1     1     4     4
-2.4710240000e-04     1     1     4     5
 1.2039447300e-02     1     1     5     2
-1.2783240000e-04     1     1     5     3
-2.4710240000e-04     1     1     5     4
 3.4643072230e-01     1     1     5     5
-3.0963364110e-01     1     2     2     1
-7.1865400000e-04     1     2     2     3
-1.3912846000e-03     1     2     2     4
 3.8236432500e-02     1     2     2     5
 2.2391910000e-04     1     2     3     1
 8.6294743300e-02     1     2     3     3
 1.9701000000e-06     1     2     3     4
-4.7287000000e-05     1     2     3     5
 4.3375960000e-04     1     2     4     1
 1.9686000000e-06     1     2     4     3
 8.6298640400e-02     1     2     4     4
-9.1347400000e-05     1     2     4     5
-1.2039447300e-02     1     2     5     1
-5.1472300000e-05     1     2     5     3
-9.9437600000e-05     1     2     5     4
 8.9514027200e-02     1     2     5     5
 2.2391910000e-04     1     3     2     1
 7.1865400000e-04     1     3     2     2
 1.5000000000e-09     1     3     2     4
 4.1853000000e-06     1     3     2     5
-3.3820061060e-01     1     3     3     1
-8.6294743300e-02     1     3     3     2
-1.3789236000e-03     1     3     3     4
 3.8062807800e-02     1     3     3     5
-4.7451000000e-06     1     3     4     1
-1.9686000000e-06     1     3     4     2
 7.1236010000e-04     1     3     4     4
-1.6710000000e-07     1     3     4     5
 1.2783240000e-04     1     3     5     1
 5.1472300000e-05     1     3     5     2
-5.0000000000e-10     1     3     5     4
 7.2362750000e-04     1     3     5     5
 4.3375960000e-04     1     4     2     1
 1.3912846000e-03     1     4     2     2
-1.5000000000e-09     1     4     2     3
 8.0902000000e-06     1     4     2     5
-4.7451000000e-06     1     4     3     1
-1.9701000000e-06     1     4     3     2
 1.3789236000e-03     1     4     3     3
-1.6660000000e-07     1     4     3     5
-3.3821165410e-01     1     4     4     1
-8.6298640400e-02     1     4     4     2
-7.1236010000e-04     1     4     4     3
 3.8062594400e-02     1     4     4     5
 2.4710240000e-04     1     4     5     1
 9.9437600000e-05     1     4     5     2
 5.0000000000e-10     1     4     5     3
 1.4005900000e-03     1     4     5     5
-1.2039447300e-02     1     5     2     1
-3.8236432500e-02     1     5     2     2
-4.1853000000e-06     1     5     2     3
-8.0902000000e-06     1     5     2     4
 1.2783240000e-04     1     5     3     1
 4.7287000000e-05     1     5     3     2
-3.8062807800e-02     1     5     3     3
 1.6660000000e-07     1     5     3     4
 2.4710240000e-04     1     5     4     1
 9.1347400000e-05     1     5     4     2
 1.6710000000e-07     1     5     4     3
-3.8062594400e-02     1     5     4     4
-3.4643072230e-01     1     5     5     1
-8.9514027200e-02     1     5     5     2
-7.2362750000e-04     1     5     5     3
-1.4005900000e-03     1     5     5     4
-3.0963364110e-01     2     1     1     2
 2.2391910000e-04     2     1     1     3
 4.3375960000e-04     2     1     1     4
-1.2039447300e-02     2     1     1     5
-7.1865400000e-04     2     1     3     2
 8.6294743300e-02     2     1     3     3
 1.9686000000e-06     2     1     3     4
-5.1472300000e-05     2     1     3     5
-1.3912846000e-03     2     1     4     2
 1.9701000000e-06     2     1     4     3
 8.6298640400e-02     2     1     4     4
-9.9437600000e-05     2     1     4     5
 3.8236432500e-02     2     1     5     2
-4.7287000000e-05     2     1     5     3
-9.1347400000e-05     2     1     5     4
 8.9514027200e-02     2     1     5     5
 3.0963364110e-01     2     2     1     1
 7.1865400000e-04     2     2     1     3
 1.3912846000e-03     2     2     1     4
-3.8236432500e-02     2     2     1     5
 7.1865400000e-04     2     2     3     1
 3.5090438230e-01     2     2     3     3
 5.9347000000e-06     2     2     3     4
-1.5859640000e-04     2     2     3     5
 1.3912846000e-03     2     2     4     1
 5.9347000000e-06     2     2     4     3
 3.5091776920e-01     2     2     4     4
-3.0661380000e-04     2     2     4     5
-3.8236432500e-02     2     2     5     1
-1.5859640000e-04     2     2     5     3
-3.0661380000e-04     2     2     5     4
 3.6096461980e-01     2     2     5     5
-2.2391910000e-04     2     3     1     1
-7.1865400000e-04     2     3     1     2
-1.5000000000e-09     2     3     1     4
-4.1853000000e-06     2     3     1     5
-8.6294743300e-02     2     3     3     1
-3.5090438230e-01     2     3     3     2
 3.2234380000e-04     2     3     3     4
-8.9747069000e-03     2     3     3     5
-1.9701000000e-06     2     3     4     1
-5.9347000000e-06     2     3     4     2
-1.6637230000e-04     2     3     4     4
-8.8300000000e-08     2     3     4     5
 4.7287000000e-05     2     3     5     1
 1.5859640000e-04     2     3     5     2
-2.0000000000e-10     2     3     5     4
-1.6612950000e-04     2     3     5     5
-4.3375960000e-04     2     4     1     1
-1.3912846000e-03     2     4     1     2
 1.5000000000e-09     2     4     1     3
-8.0902000000e-06     2     4     1     5
-1.9686000000e-06     2     4     3     1
-5.9347000000e-06     2     4     3     2
-3.2234380000e-04     2     4     3     3
-8.8100000000e-08     2     4     3     5
-8.6298640400e-02     2     4     4     1
-3.5091776920e-01     2     4     4     2
 1.6637230000e-04     2     4     4     3
-8.9749446000e-03     2     4     4     5
 9.1347400000e-05     2     4     5     1
 3.0661380000e-04     2     4     5     2
 2.0000000000e-10     2     4     5     3
-3.2192080000e-04     2     4     5     5
 1.2039447300e-02     2     5     1     1
 3.8236432500e-02     2     5     1     2
 4.1853000000e-06     2     5     1     3
 8.0902000000e-06     2     5     1     4
 5.1472300000e-05     2     5     3     1
 1.5859640000e-04     2     5     3     2
 8.9747069000e-03     2     5     3     3
 8.8100000000e-08     2     5     3     4
 9.9437600000e-05     2     5     4     1
 3.0661380000e-04     2     5     4     2
 8.8300000000e-08     2     5     4     3
 8.9749446000e-03     2     5     4     4
-8.9514027200e-02     2     5     5     1
-3.6096461980e-01     2     5     5     2
 1.6612950000e-04     2     5     5     3
 3.2192080000e-04     2     5     5     4
 2.2391910000e-04     3     1     1     2
-3.3820061060e-01     3     1     1     3
-4.7451000000e-06     3     1     1     4
 1.2783240000e-04     3     1     1     5
 7.1865400000e-04     3     1     2     2
-8.6294743300e-02     3     1     2     3
-1.9686000000e-06     3     1     2     4
 5.1472300000e-05     3     1     2     5
 1.5000000000e-09     3     1     4     2
-1.3789236000e-03     3     1     4     3
 7.1236010000e-04     3     1     4     4
-5.0000000000e-10     3     1     4     5
 4.1853000000e-06     3     1     5     2
 3.8062807800e-02     3     1     5     3
-1.6710000000e-07     3     1     5     4
 7.2362750000e-04     3     1     5     5
-2.2391910000e-04     3     2     1     1
-8.6294743300e-02     3     2     1     3
-1.9701000000e-06     3     2     1     4
 4.7287000000e-05     3     2     1     5
-7.1865400000e-04     3     2     2     1
-3.5090438230e-01     3     2     2     3
-5.9347000000e-06     3     2     2     4
 1.5859640000e-04     3     2     2     5
-1.5000000000e-09     3     2     4     1
 3.2234380000e-04     3     2     4     3
-1.6637230000e-04     3     2     4     4
-2.0000000000e-10     3     2     4     5
-4.1853000000e-06     3     2     5     1
-8.9747069000e-03     3     2     5     3
-8.8300000000e-08     3     2     5     4
-1.6612950000e-04     3     2     5     5
 3.3820061060e-01     3     3     1     1
 8.6294743300e-02     3     3     1     2
 1.3789236000e-03     3     3     1     4
-3.8062807800e-02     3     3     1     5
 8.6294743300e-02     3     3     2     1
 3.5090438230e-01     3     3     2     2
-3.2234380000e-04     3     3     2     4
 8.9747069000e-03     3     3     2     5
 1.3789236000e-03     3     3     4     1
-3.2234380000e-04     3     3     4     2
 3.6109207150e-01     3     3     4     4
-2.5045960000e-04     3     3     4     5
-3.8062807800e-02     3     3     5     1
 8.9747069000e-03     3     3     5     2
-2.5045960000e-04     3     3     5     4
 3.6938759880e-01     3     3     5     5
 4.7451000000e-06     3     4     1     1
 1.9701000000e-06     3     4     1     2
-1.3789236000e-03     3     4     1     3
 1.6660000000e-07     3     4     1     5
 1.9686000000e-06     3     4     2     1
 5.9347000000e-06     3     4     2     2
 3.2234380000e-04     3     4     2     3
 8.8100000000e-08     3     4     2     5
-7.1236010000e-04     3     4     4     1
 1.6637230000e-04     3     4     4     2
-3.6109207150e-01     3     4     4     3
 1.2955820000e-04     3     4     4     5
 1.6710000000e-07     3     4     5     1
 8.8300000000e-08     3     4     5     2
 2.5045960000e-04     3     4     5     3
 4.9317000000e-06     3     4     5     5
-1.2783240000e-04     3     5     1     1
-4.7287000000e-05     3     5     1     2
 3.8062807800e-02     3     5     1     3
-1.6660000000e-07     3     5     1     4
-5.1472300000e-05     3     5     2     1
-1.5859640000e-04     3     5     2     2
-8.9747069000e-03     3     5     2     3
-8.8100000000e-08     3     5     2     4
 5.0000000000e-10     3     5     4     1
 2.0000000000e-10     3     5     4     2
 2.5045960000e-04     3     5     4     3
-1.2955820000e-04     3     5     4     4
-7.2362750000e-04     3     5     5     1
 1.6612950000e-04     3     5     5     2
-3.6938759880e-01     3     5     5     3
-4.9317000000e-06     3     5     5     4
 4.3375960000e-04     4     1     1     2
-4.7451000000e-06     4     1     1     3
-3.3821165410e-01     4     1     1     4
 2.4710240000e-04     4     1     1     5
 1.3912846000e-03     4     1     2     2
-1.9701000000e-06     4     1     2     3
-8.6298640400e-02     4     1     2     4
 9.9437600000e-05     4     1     2     5
-1.5000000000e-09     4     1     3     2
 1.3789236000e-03     4     1     3     3
-7.1236010000e-04     4     1     3     4
 5.0000000000e-10     4     1     3     5
 8.0902000000e-06     4     1     5     2
-1.6660000000e-07     4     1     5     3
 3.8062594400e-02     4     1     5     4
 1.4005900000e-03     4     1     5     5
-4.3375960000e-04     4     2     1     1
-1.9686000000e-06     4     2     1     3
-8.6298640400e-02     4     2     1     4
 9.1347400000e-05     4     2     1     5
-1.3912846000e-03     4     2     2     1
-5.9347000000e-06     4     2     2     3
-3.5091776920e-01     4     2     2     4
 3.0661380000e-04     4     2     2     5
 1.5000000000e-09     4     2     3     1
-3.2234380000e-04     4     2     3     3
 1.6637230000e-04     4     2     3     4
 2.0000000000e-10     4     2     3     5
-8.0902000000e-06     4     2     5     1
-8.8100000000e-08     4     2     5     3
-8.9749446000e-03     4     2     5     4
-3.2192080000e-04     4     2     5     5
 4.7451000000e-06     4     3     1     1
 1.9686000000e-06     4     3     1     2
-7.1236010000e-04     4     3     1     4
 1.6710000000e-07     4     3     1     5
 1.9701000000e-06     4     3     2     1
 5.9347000000e-06     4     3     2     2
 1.6637230000e-04     4     3     2     4
 8.8300000000e-08     4     3     2     5
-1.3789236000e-03     4     3     3     1
 3.2234380000e-04     4     3     3     2
-3.6109207150e-01     4     3     3     4
 2.5045960000e-04     4     3     3     5
 1.6660000000e-07     4     3     5     1
 8.8100000000e-08     4     3     5     2
 1.2955820000e-04     4     3     5     4
 4.9317000000e-06     4     3     5     5
 3.3821165410e-01     4     4     1     1
 8.6298640400e-02     4     4     1     2
 7.1236010000e-04     4     4     1     3
-3.8062594400e-02     4     4     1     5
 8.6298640400e-02     4     4     2     1
 3.5091776920e-01     4     4     2     2
-1.6637230000e-04     4     4     2     3
 8.9749446000e-03     4     4     2     5
 7.1236010000e-04     4     4     3     1
-1.6637230000e-04     4     4     3     2
 3.6109207150e-01     4     4     3     3
-1.2955820000e-04     4     4     3     5
-3.8062594400e-02     4     4     5     1
 8.9749446000e-03     4     4     5     2
-1.2955820000e-04     4     4     5     3
 3.6939926090e-01     4     4     5     5
-2.4710240000e-04     4     5     1     1
-9.1347400000e-05     4     5     1     2
-1.6710000000e-07     4     5     1     3
 3.8062594400e-02     4     5     1     4
-9.9437600000e-05     4     5     2     1
-3.0661380000e-04     4     5     2     2
-8.8300000000e-08     4     5     2     3
-8.9749446000e-03     4     5     2     4
-5.0000000000e-10     4     5     3     1
-2.0000000000e-10     4     5     3     2
-2.5045960000e-04     4     5     3     3
 1.2955820000e-04     4     5     3     4
-1.4005900000e-03     4     5     5     1
 3.2192080000e-04     4     5     5     2
-4.9317000000e-06     4     5     5     3
-3.6939926090e-01     4     5     5     4
-1.2039447300e-02     5     1     1     2
 1.2783240000e-04     5     1     1     3
 2.4710240000e-04     5     1     1     4
-3.4643072230e-01     5     1     1     5
-3.8236432500e-02     5     1     2     2
 4.7287000000e-05     5     1     2     3
 9.1347400000e-05     5     1     2     4
-8.9514027200e-02     5     1     2     5
-4.1853000000e-06     5     1     3     2
-3.8062807800e-02     5     1     3     3
 1.6710000000e-07     5     1     3     4
-7.2362750000e-04     5     1     3     5
-8.0902000000e-06     5     1     4     2
 1.6660000000e-07     5     1     4     3
-3.8062594400e-02     5     1     4     4
-1.4005900000e-03     5     1     4     5
 1.2039447300e-02     5     2     1     1
 5.1472300000e-05     5     2     1     3
 9.9437600000e-05     5     2     1     4
-8.9514027200e-02     5     2     1     5
 3.8236432500e-02     5     2     2     1
 1.5859640000e-04     5     2     2     3
 3.0661380000e-04     5     2     2     4
-3.6096461980e-01     5     2     2     5
 4.1853000000e-06     5     2     3     1
 8.9747069000e-03     5     2     3     3
 8.8300000000e-08     5     2     3     4
 1.6612950000e-04     5     2     3     5
 8.0902000000e-06     5     2     4     1
 8.8100000000e-08     5     2     4     3
 8.9749446000e-03     5     2     4     4
 3.2192080000e-04     5     2     4     5
-1.2783240000e-04     5     3     1     1
-5.1472300000e-05     5     3     1     2
 5.0000000000e-10     5     3     1     4
-7.2362750000e-04     5     3     1     5
-4.7287000000e-05     5     3     2     1
-1.5859640000e-04     5     3     2     2
 2.0000000000e-10     5     3     2     4
 1.6612950000e-04     5     3     2     5
 3.8062807800e-02     5     3     3     1
-8.9747069000e-03     5     3     3     2
 2.5045960000e-04     5     3     3     4
-3.6938759880e-01     5     3     3     5
-1.6660000000e-07     5     3     4     1
-8.8100000000e-08     5     3     4     2
-1.2955820000e-04     5     3     4     4
-4.9317000000e-06     5     3     4     5
-2.4710240000e-04     5     4     1     1
-9.9437600000e-05     5     4     1     2
-5.0000000000e-10     5     4     1     3
-1.4005900000e-03     5     4     1     5
-9.1347400000e-05     5     4     2     1
-3.0661380000e-04     5     4     2     2
-2.0000000000e-10     5     4     2     3
 3.2192080000e-04     5     4     2     5
-1.6710000000e-07     5     4     3     1
-8.8300000000e-08     5     4     3     2
-2.5045960000e-04     5     4     3     3
-4.9317000000e-06     5     4     3     5
 3.8062594400e-02     5     4     4     1
-8.9749446000e-03     5     4     4     2
 1.2955820000e-04     5     4     4     3
-3.6939926090e-01     5     4     4     5
 3.4643072230e-01     5     5     1     1
 8.9514027200e-02     5     5     1     2
 7.2362750000e-04     5     5     1     3
 1.4005900000e-03     5     5     1     4
 8.9514027200e-02     5     5     2     1
 3.6096461980e-01     5     5     2     2
-1.6612950000e-04     5     5     2     3
-3.2192080000e-04     5     5     2     4
 7.2362750000e-04     5     5     3     1
-1.6612950000e-04     5     5     3     2
 3.6938759880e-01     5     5     3     3
 4.9317000000e-06     5     5     3     4
 1.4005900000e-03     5     5     4     1
-3.2192080000e-04     5     5     4     2
 4.9317000000e-06     5     5     4     3
 3.6939926090e-01     5     5     4     4
0.0 0 0 0 0
 3.0963364110e-01     1     1     2     2
-2.2391910000e-04     1     1     2     3
-4.3375960000e-04     1     1     2     4
 1.2039447300e-02     1     1     2     5
-2.2391910000e-04     1     1     3     2
 3.3820061060e-01     1     1     3     3
 4.7451000000e-06     1     1     3     4
-1.2783240000e-04     1     1     3     5
-4.3375960000e-04     1     1     4     2
 4.7451000000e-06     1     1     4     3
 3.3821165410e-01     1     1     4     4
-2.4710240000e-04     1     1     4     5
 1.2039447300e-02     1     1     5     2
-1.2783240000e-04     1     1     5     3
-2.4710240000e-04     1     1     5     4
 3.4643072230e-01     1     1     5     5
-3.0963364110e-01     1     2     2     1
-7.1865400000e-04     1     2     2     3
-1.3912846000e-03     1     2     2     4
 3.8236432500e-02     1     2     2     5
 2.2391910000e-04     1     2     3     1
 8.6294743300e-02     1     2     3     3
 1.9701000000e-06     1     2     3     4
-4.7287000000e-05     1     2     3     5
 4.3375960000e-04     1     2     4     1
 1.9686000000e-06     1     2     4     3
 8.6298640400e-02     1     2     4     4
-9.1347400000e-05     1     2     4     5
-1.2039447300e-02     1     2     5     1
-5.1472300000e-05     1     2     5     3
-9.9437600000e-05     1     2     5     4
 8.9514027200e-02     1     2     5     5
 2.2391910000e-04     1     3     2     1
 7.1865400000e-04     1     3     2     2
 1.5000000000e-09     1     3     2     4
 4.1853000000e-06     1     3     2     5
-3.3820061060e-01     1     3     3     1
-8.6294743300e-02     1     3     3     2
-1.3789236000e-03     1     3     3     4
 3.8062807800e-02     1     3     3     5
-4.7451000000e-06     1     3     4     1
-1.9686000000e-06     1     3     4     2
 7.1236010000e-04     1     3     4     4
-1.6710000000e-07     1     3     4     5
 1.2783240000e-04     1     3     5     1
 5.1472300000e-05     1     3     5     2
-5.0000000000e-10     1     3     5     4
 7.2362750000e-04     1     3     5     5
 4.3375960000e-04     1     4     2     1
 1.3912846000e-03     1     4     2     2
-1.5000000000e-09     1     4     2     3
 8.0902000000e-06     1     4     2     5
-4.7451000000e-06     1     4     3     1
-1.9701000000e-06     1     4     3     2
 1.3789236000e-03     1     4     3     3
-1.6660000000e-07     1     4     3     5
-3.3821165410e-01     1     4     4     1
-8.6298640400e-02     1     4     4     2
-7.1236010000e-04     1     4     4     3
 3.8062594400e-02     1     4     4     5
 2.4710240000e-04     1     4     5     1
 9.9437600000e-05     1     4     5     2
 5.0000000000e-10     1     4     5     3
 1.4005900000e-03     1     4     5     5
-1.2039447300e-02     1     5     2     1
-3.8236432500e-02     1     5     2     2
-4.1853000000e-06     1     5     2     3
-8.0902000000e-06     1     5     2     4
 1.2783240000e-04     1     5     3     1
 4.7287000000e-05     1     5     3     2
-3.8062807800e-02     1     5     3     3
 1.6660000000e-07     1     5     3     4
 2.4710240000e-04     1     5     4     1
 9.1347400000e-05     1     5     4     2
 1.6710000000e-07     1     5     4     3
-3.8062594400e-02     1     5     4     4
-3.4643072230e-01     1     5     5     1
-8.9514027200e-02     1     5     5     2
-7.2362750000e-04     1     5     5     3
-1.4005900000e-03     1     5     5     4
-3.0963364110e-01     2     1     1     2
 2.2391910000e-04     2     1     1     3
 4.3375960000e-04     2     1     1     4
-1.2039447300e-02     2     1     1     5
-7.1865400000e-04     2     1     3     2
 8.6294743300e-02     2     1     3     3
 1.9686000000e-06     2     1     3     4
-5.1472300000e-05     2     1     3     5
-1.3912846000e-03     2     1     4     2
 1.9701000000e-06     2     1     4     3
 8.6298640400e-02     2     1     4     4
-9.9437600000e-05     2     1     4     5
 3.8236432500e-02     2     1     5     2
-4.7287000000e-05     2     1     5     3
-9.1347400000e-05     2     1     5     4
 8.9514027200e-02     2     1     5     5
 3.0963364110e-01     2     2     1     1
 7.1865400000e-04     2     2     1     3
 1.3912846000e-03     2     2     1     4
-3.8236432500e-02     2     2     1     5
 7.1865400000e-04     2     2     3     1
 3.5090438230e-01     2     2     3     3
 5.9347000000e-06     2     2     3     4
-1.5859640000e-04     2     2     3     5
 1.3912846000e-03     2     2     4     1
 5.9347000000e-06     2     2     4     3
 3.5091776920e-01     2     2     4     4
-3.0661380000e-04     2     2     4     5
-3.8236432500e-02     2     2     5     1
-1.5859640000e-04     2     2     5     3
-3.0661380000e-04     2     2     5     4
 3.6096461980e-01     2     2     5     5
-2.2391910000e-04     2     3     1     1
-7.1865400000e-04     2     3     1     2
-1.5000000000e-09     2     3     1     4
-4.1853000000e-06     2     3     1     5
-8.6294743300e-02     2     3     3     1
-3.5090438230e-01     2     3     3     2
 3.2234380000e-04     2     3     3     4
-8.9747069000e-03     2     3     3     5
-1.9701000000e-06     2     3     4     1
-5.9347000000e-06     2     3     4     2
-1.6637230000e-04     2     3     4     4
-8.8300000000e-08     2     3     4     5
 4.7287000000e-05     2     3     5     1
 1.5859640000e-04     2     3     5     2
-2.0000000000e-10     2     3     5     4
-1.6612950000e-04     2     3     5     5
-4.3375960000e-04     2     4     1     1
-1.3912846000e-03     2     4     1     2
 1.5000000000e-09     2     4     1     3
-8.0902000000e-06     2     4     1     5
-1.9686000000e-06     2     4     3     1
-5.9347000000e-06     2     4     3     2
-3.2234380000e-04     2     4     3     3
-8.8100000000e-08     2     4     3     5
-8.6298640400e-02     2     4     4     1
-3.5091776920e-01     2     4     4     2
 1.6637230000e-04     2     4     4     3
-8.9749446000e-03     2     4     4     5
 9.1347400000e-05     2     4     5     1
 3.0661380000e-04     2     4     5     2
 2.0000000000e-10     2     4     5     3
-3.2192080000e-04     2     4     5     5
 1.2039447300e-02     2     5     1     1
 3.8236432500e-02     2     5     1     2
 4.1853000000e-06     2     5     1     3
 8.0902000000e-06     2     5     1     4
 5.1472300000e-05     2     5     3     1
 1.5859640000e-04     2     5     3     2
 8.9747069000e-03     2     5     3     3
 8.8100000000e-08     2     5     3     4
 9.9437600000e-05     2     5     4     1
 3.0661380000e-04     2     5     4     2
 8.8300000000e-08     2     5     4     3
 8.9749446000e-03     2     5     4     4
-8.9514027200e-02     2     5     5     1
-3.6096461980e-01     2     5     5     2
 1.6612950000e-04     2     5     5     3
 3.2192080000e-04     2     5     5     4
 2.2391910000e-04     3     1     1     2
-3.3820061060e-01     3     1     1     3
-4.7451000000e-06     3     1     1     4
 1.2783240000e-04     3     1     1     5
 7.1865400000e-04     3     1     2     2
-8.6294743300e-02     3     1     2     3
-1.9686000000e-06     3     1     2     4
 5.1472300000e-05     3     1     2     5
 1.5000000000e-09     3     1     4     2
-1.3789236000e-03     3     1     4     3
 7.1236010000e-04     3     1     4     4
-5.0000000000e-10     3     1     4     5
 4.1853000000e-06     3     1     5     2
 3.8062807800e-02     3     1     5     3
-1.6710000000e-07     3     1     5     4
 7.2362750000e-04     3     1     5     5
-2.2391910000e-04     3     2     1     1
-8.6294743300e-02     3     2     1     3
-1.9701000000e-06     3     2     1     4
 4.7287000000e-05     3     2     1     5
-7.1865400000e-04     3     2     2     1
-3.5090438230e-01     3     2     2     3
-5.9347000000e-06     3     2     2     4
 1.5859640000e-04     3     2     2     5
-1.5000000000e-09     3     2     4     1
 3.2234380000e-04     3     2     4     3
-1.6637230000e-04     3     2     4     4
-2.0000000000e-10     3     2     4     5
-4.1853000000e-06     3     2     5     1
-8.9747069000e-03     3     2     5     3
-8.8300000000e-08     3     2     5     4
-1.6612950000e-04     3     2     5     5
 3.3820061060e-01     3     3     1     1
 8.6294743300e-02     3     3     1     2
 1.3789236000e-03     3     3     1     4
-3.8062807800e-02     3     3     1     5
 8.6294743300e-02     3     3     2     1
 3.5090438230e-01     3     3     2     2
-3.2234380000e-04     3     3     2     4
 8.9747069000e-03     3     3     2     5
 1.3789236000e-03     3     3     4     1
-3.2234380000e-04     3     3     4     2
 3.6109207150e-01     3     3     4     4
-2.5045960000e-04     3     3     4     5
-3.8062807800e-02     3     3     5     1
 8.9747069000e-03     3     3     5     2
-2.5045960000e-04     3     3     5     4
 3.6938759880e-01     3     3     5     5
 4.7451000000e-06     3     4     1     1
 1.9701000000e-06     3     4     1     2
-1.3789236000e-03     3     4     1     3
 1.6660000000e-07     3     4     1     5
 1.9686000000e-06     3     4     2     1
 5.9347000000e-06     3     4     2     2
 3.2234380000e-04     3     4     2     3
 8.8100000000e-08     3     4     2     5
-7.1236010000e-04     3     4     4     1
 1.6637230000e-04     3     4     4     2
-3.6109207150e-01     3     4     4     3
 1.2955820000e-04     3     4     4     5
 1.6710000000e-07     3     4     5     1
 8.8300000000e-08     3     4     5     2
 2.5045960000e-04     3     4     5     3
 4.9317000000e-06     3     4     5     5
-1.2783240000e-04     3     5     1     1
-4.7287000000e-05     3     5     1     2
 3.8062807800e-02     3     5     1     3
-1.6660000000e-07     3     5     1     4
-5.1472300000e-05     3     5     2     1
-1.5859640000e-04     3     5     2     2
-8.9747069000e-03     3     5     2     3
-8.8100000000e-08     3     5     2     4
 5.0000000000e-10     3     5     4     1
 2.0000000000e-10     3     5     4     2
 2.5045960000e-04     3     5     4     3
-1.2955820000e-04     3     5     4     4
-7.2362750000e-04     3     5     5     1
 1.6612950000e-04     3     5     5     2
-3.6938759880e-01     3     5     5     3
-4.9317000000e-06     3     5     5     4
 4.3375960000e-04     4     1     1     2
-4.7451000000e-06     4     1     1     3
-3.3821165410e-01     4     1     1     4
 2.4710240000e-04     4     1     1     5
 1.3912846000e-03     4     1     2     2
-1.9701000000e-06     4     1     2     3
-8.6298640400e-02     4     1     2     4
 9.9437600000e-05     4     1     2     5
-1.5000000000e-09     4     1     3     2
 1.3789236000e-03     4     1     3     3
-7.1236010000e-04     4     1     3     4
 5.0000000000e-10     4     1     3     5
 8.0902000000e-06     4     1     5     2
-1.6660000000e-07     4     1     5     3
 3.8062594400e-02     4     1     5     4
 1.4005900000e-03     4     1     5     5
-4.3375960000e-04     4     2     1     1
-1.9686000000e-06     4     2     1     3
-8.6298640400e-02     4     2     1     4
 9.1347400000e-05     4     2     1     5
-1.3912846000e-03     4     2     2     1
-5.9347000000e-06     4     2     2     3
-3.5091776920e-01     4     2     2     4
 3.0661380000e-04     4     2     2     5
 1.5000000000e-09     4     2     3     1
-3.2234380000e-04     4     2     3     3
 1.6637230000e-04     4     2     3     4
 2.0000000000e-10     4     2     3     5
-8.0902000000e-06     4     2     5     1
-8.8100000000e-08     4     2     5     3
-8.9749446000e-03     4     2     5     4
-3.2192080000e-04     4     2     5     5
 4.7451000000e-06     4     3     1     1
 1.9686000000e-06     4     3     1     2
-7.1236010000e-04     4     3     1     4
 1.6710000000e-07     4     3     1     5
 1.9701000000e-06     4     3     2     1
 5.9347000000e-06     4     3     2     2
 1.6637230000e-04     4     3     2     4
 8.8300000000e-08     4     3     2     5
-1.3789236000e-03     4     3     3     1
 3.2234380000e-04     4     3     3     2
-3.6109207150e-01     4     3     3     4
 2.5045960000e-04     4     3     3     5
 1.6660000000e-07     4     3     5     1
 8.8100000000e-08     4     3     5     2
 1.2955820000e-04     4     3     5     4
 4.9317000000e-06     4     3     5     5
 3.3821165410e-01     4     4     1     1
 8.6298640400e-02     4     4     1     2
 7.1236010000e-04     4     4     1     3
-3.8062594400e-02     4     4     1     5
 8.6298640400e-02     4     4     2     1
 3.5091776920e-01     4     4     2     2
-1.6637230000e-04     4     4     2     3
 8.9749446000e-03     4     4     2     5
 7.1236010000e-04     4     4     3     1
-1.6637230000e-04     4     4     3     2
 3.6109207150e-01     4     4     3     3
-1.2955820000e-04     4     4     3     5
-3.8062594400e-02     4     4     5     1
 8.9749446000e-03     4     4     5     2
-1.2955820000e-04     4     4     5     3
 3.6939926090e-01     4     4     5     5
-2.4710240000e-04     4     5     1     1
-9.1347400000e-05     4     5     1     2
-1.6710000000e-07     4     5     1     3
 3.8062594400e-02     4     5     1     4
-9.9437600000e-05     4     5     2     1
-3.0661380000e-04     4     5     2     2
-8.8300000000e-08     4     5     2     3
-8.9749446000e-03     4     5     2     4