&FCI NORB=  5,NELEC=  2,MS2=0,
 ORBSYM=1,1,1,1,1
 ISYM=1,
&END
 2.0250797660e-01     1     1     2     2
-2.3238126000e-03     1     1     2     3
-1.5552500000e-05     1     1     2     4
 8.1488000000e-06     1     1     2     5
-2.3238126000e-03     1     1     3     2
 2.8903178430e-01     1     1     3     3
-8.3910000000e-07     1     1     3     4
 1.2111000000e-06     1     1     3     5
-1.5552500000e-05     1     1     4     2
-8.3910000000e-07     1     1     4     3
 2.9280307740e-01     1     1     4     4
 2.0100000000e-08     1     1     4     5
 8.1488000000e-06     1     1     5     2
 1.2111000000e-06     1     1     5     3
 2.0100000000e-08     1     1     5     4
 2.9277534910e-01     1     1     5     5
-2.0250797660e-01     1     2     2     1
-2.7974855700e-02     1     2     2     3
-2.7022000000e-06     1     2     2     4
 4.2735900000e-05     1     2     2     5
 2.3238126000e-03     1     2     3     1
-8.4475761600e-02     1     2     3     3
-2.9668000000e-06     1     2     3     4
 5.3641000000e-06     1     2     3     5
 1.5552500000e-05     1     2     4     1
-1.7118000000e-06     1     2     4     3
-8.3314059400e-02     1     2     4     4
-5.9000000000e-09     1     2     4     5
-8.1488000000e-06     1     2     5     1
 5.2545000000e-06     1     2     5     3
-1.0700000000e-08     1     2     5     4
-8.3298372000e-02     1     2     5     5
 2.3238126000e-03     1     3     2     1
 2.7974855700e-02     1     3     2     2
-1.2550000000e-06     1     3     2     4
 1.0960000000e-07     1     3     2     5
-2.8903178430e-01     1     3     3     1
 8.4475761600e-02     1     3     3     2
-2.2871700000e-05     1     3     3     4
 6.3703100000e-05     1     3     3     5
 8.3910000000e-07     1     3     4     1
 1.7118000000e-06     1     3     4     2
 3.8924107100e-02     1     3     4     4
-1.4900000000e-08     1     3     4     5
-1.2111000000e-06     1     3     5     1
-5.2545000000e-06     1     3     5     2
-2.0800000000e-08     1     3     5     4
 3.8921462500e-02     1     3     5     5
 1.5552500000e-05     1     4     2     1
 2.7022000000e-06     1     4     2     2
 1.2550000000e-06     1     4     2     3
 4.8000000000e-09     1     4     2     5
 8.3910000000e-07     1     4     3     1
 2.9668000000e-06     1     4     3     2
 2.2871700000e-05     1     4     3     3
 5.9000000000e-09     1     4     3     5
-2.9280307740e-01     1     4     4     1
 8.3314059400e-02     1     4     4     2
-3.8924107100e-02     1     4     4     3
 6.4256200000e-05     1     4     4     5
-2.0100000000e-08     1     4     5     1
 1.0700000000e-08     1     4     5     2
 2.0800000000e-08     1     4     5     3
 2.3113200000e-05     1     4     5     5
-8.1488000000e-06     1     5     2     1
-4.2735900000e-05     1     5     2     2
-1.0960000000e-07     1     5     2     3
-4.8000000000e-09     1     5     2     4
-1.2111000000e-06     1     5     3     1
-5.3641000000e-06     1     5     3     2
-6.3703100000e-05     1     5     3     3
-5.9000000000e-09     1     5     3     4
-2.0100000000e-08     1     5     4     1
 5.9000000000e-09     1     5     4     2
 1.4900000000e-08     1     5     4     3
-6.4256200000e-05     1     5     4     4
-2.9277534910e-01     1     5     5     1
 8.3298372000e-02     1     5     5     2
-3.8921462500e-02     1     5     5     3
-2.3113200000e-05     1     5     5     4
-2.0250797660e-01     2     1     1     2
 2.3238126000e-03     2     1     1     3
 1.5552500000e-05     2     1     1     4
-8.1488000000e-06     2     1     1     5
-2.7974855700e-02     2     1     3     2
-8.4475761600e-02     2     1     3     3
-1.7118000000e-06     2     1     3     4
 5.2545000000e-06     2     1     3     5
-2.7022000000e-06     2     1     4     2
-2.9668000000e-06     2     1     4     3
-8.3314059400e-02     2     1     4     4
-1.0700000000e-08     2     1     4     5
 4.2735900000e-05     2     1     5     2
 5.3641000000e-06     2     1     5     3
-5.9000000000e-09     2     1     5     4
-8.3298372000e-02     2     1     5     5
 2.0250797660e-01     2     2     1     1
 2.7974855700e-02     2     2     1     3
 2.7022000000e-06     2     2     1     4
-4.2735900000e-05     2     2     1     5
 2.7974855700e-02     2     2     3     1
 2.5899775220e-01     2     2     3     3
-4.4867000000e-06     2     2     3     4
 3.9001000000e-06     2     2     3     5
 2.7022000000e-06     2     2     4     1
-4.4867000000e-06     2     2     4     3
 2.6272490900e-01     2     2     4     4
 1.7100000000e-08     2     2     4     5
-4.2735900000e-05     2     2     5     1
 3.9001000000e-06     2     2     5     3
 1.7100000000e-08     2     2     5     4
 2.6270688750e-01     2     2     5     5
-2.3238126000e-03     2     3     1     1
-2.7974855700e-02     2     3     1     2
 1.2550000000e-06     2     3     1     4
-1.0960000000e-07     2     3     1     5
 8.4475761600e-02     2     3     3     1
-2.5899775220e-01     2     3     3     2
 2.3421700000e-05     2     3     3     4
-1.8637100000e-05     2     3     3     5
 2.9668000000e-06     2     3     4     1
 4.4867000000e-06     2     3     4     2
-8.4611883000e-03     2     3     4     4
 2.0000000000e-09     2     3     4     5
-5.3641000000e-06     2     3     5     1
-3.9001000000e-06     2     3     5     2
 4.0000000000e-09     2     3     5     4
-8.4578595000e-03     2     3     5     5
-1.5552500000e-05     2     4     1     1
-2.7022000000e-06     2     4     1     2
-1.2550000000e-06     2     4     1     3
-4.8000000000e-09     2     4     1     5
 1.7118000000e-06     2     4     3     1
 4.4867000000e-06     2     4     3     2
-2.3421700000e-05     2     4     3     3
-2.0000000000e-09     2     4     3     5
 8.3314059400e-02     2     4     4     1
-2.6272490900e-01     2     4     4     2
 8.4611883000e-03     2     4     4     3
-1.9424000000e-05     2     4     4     5
 5.9000000000e-09     2     4     5     1
-1.7100000000e-08     2     4     5     2
-4.0000000000e-09     2     4     5     3
-2.3570600000e-05     2     4     5     5
 8.1488000000e-06     2     5     1     1
 4.2735900000e-05     2     5     1     2
 1.0960000000e-07     2     5     1     3
 4.8000000000e-09     2     5     1     4
-5.2545000000e-06     2     5     3     1
-3.9001000000e-06     2     5     3     2
 1.8637100000e-05     2     5     3     3
 2.0000000000e-09     2     5     3     4
 1.0700000000e-08     2     5     4     1
-1.7100000000e-08     2     5     4     2
-2.0000000000e-09     2     5     4     3
 1.9424000000e-05     2     5     4     4
 8.3298372000e-02     2     5     5     1
-2.6270688750e-01     2     5     5     2
 8.4578595000e-03     2     5     5     3
 2.3570600000e-05     2     5     5     4
 2.3238126000e-03     3     1     1     2
-2.8903178430e-01     3     1     1     3
 8.3910000000e-07     3     1     1     4
-1.2111000000e-06     3     1     1     5
 2.7974855700e-02     3     1     2     2
 8.4475761600e-02     3     1     2     3
 1.7118000000e-06     3     1     2     4
-5.2545000000e-06     3     1     2     5
-1.2550000000e-06     3     1     4     2
-2.2871700000e-05     3     1     4     3
 3.8924107100e-02     3     1     4     4
-2.0800000000e-08     3     1     4     5
 1.0960000000e-07     3     1     5     2
 6.3703100000e-05     3     1     5     3
-1.4900000000e-08     3     1     5     4
 3.8921462500e-02     3     1     5     5
-2.3238126000e-03     3     2     1     1
 8.4475761600e-02     3     2     1     3
 2.9668000000e-06     3     2     1     4
-5.3641000000e-06     3     2     1     5
-2.7974855700e-02     3     2     2     1
-2.5899775220e-01     3     2     2     3
 4.4867000000e-06     3     2     2     4
-3.9001000000e-06     3     2     2     5
 1.2550000000e-06     3     2     4     1
 2.3421700000e-05     3     2     4     3
-8.4611883000e-03     3     2     4     4
 4.0000000000e-09     3     2     4     5
-1.0960000000e-07     3     2     5     1
-1.8637100000e-05     3     2     5     3
 2.0000000000e-09     3     2     5     4
-8.4578595000e-03     3     2     5     5
 2.8903178430e-01     3     3     1     1
-8.4475761600e-02     3     3     1     2
 2.2871700000e-05     3     3     1     4
-6.3703100000e-05     3     3     1     5
-8.4475761600e-02     3     3     2     1
 2.5899775220e-01     3     3     2     2
-2.3421700000e-05     3     3     2     4
 1.8637100000e-05     3     3     2     5
 2.2871700000e-05     3     3     4     1
-2.3421700000e-05     3     3     4     2
 3.2364502010e-01     3     3     4     4
 1.9900000000e-08     3     3     4     5
-6.3703100000e-05     3     3     5     1
 1.8637100000e-05     3     3     5     2
 1.9900000000e-08     3     3     5     4
 3.2361457230e-01     3     3     5     5
-8.3910000000e-07     3     4     1     1
-2.9668000000e-06     3     4     1     2
-2.2871700000e-05     3     4     1     3
-5.9000000000e-09     3     4     1     5
-1.7118000000e-06     3     4     2     1
-4.4867000000e-06     3     4     2     2
 2.3421700000e-05     3     4     2     3
 2.0000000000e-09     3     4     2     5
-3.8924107100e-02     3     4     4     1
 8.4611883000e-03     3     4     4     2
-3.2364502010e-01     3     4     4     3
 2.1740000000e-06     3     4     4     5
 1.4900000000e-08     3     4     5     1
-2.0000000000e-09     3     4     5     2
-1.9900000000e-08     3     4     5     3
 1.1240000000e-07     3     4     5     5
 1.2111000000e-06     3     5     1     1
 5.3641000000e-06     3     5     1     2
 6.3703100000e-05     3     5     1     3
 5.9000000000e-09     3     5     1     4
 5.2545000000e-06     3     5     2     1
 3.9001000000e-06     3     5     2     2
-1.8637100000e-05     3     5     2     3
-2.0000000000e-09     3     5     2     4
 2.0800000000e-08     3     5     4     1
-4.0000000000e-09     3     5     4     2
-1.9900000000e-08     3     5     4     3
-2.1740000000e-06     3     5     4     4
-3.8921462500e-02     3     5     5     1
 8.4578595000e-03     3     5     5     2
-3.2361457230e-01     3     5     5     3
-1.1240000000e-07     3     5     5     4
 1.5552500000e-05     4     1     1     2
 8.3910000000e-07     4     1     1     3
-2.9280307740e-01     4     1     1     4
-2.0100000000e-08     4     1     1     5
 2.7022000000e-06     4     1     2     2
 2.9668000000e-06     4     1     2     3
 8.3314059400e-02     4     1     2     4
 1.0700000000e-08     4     1     2     5
 1.2550000000e-06     4     1     3     2
 2.2871700000e-05     4     1     3     3
-3.8924107100e-02     4     1     3     4
 2.0800000000e-08     4     1     3     5
 4.8000000000e-09     4     1     5     2
 5.9000000000e-09     4     1     5     3
 6.4256200000e-05     4     1     5     4
 2.3113200000e-05     4     1     5     5
-1.5552500000e-05     4     2     1     1
 1.7118000000e-06     4     2     1     3
 8.3314059400e-02     4     2     1     4
 5.9000000000e-09     4     2     1     5
-2.7022000000e-06     4     2     2     1
 4.4867000000e-06     4     2     2     3
-2.6272490900e-01     4     2     2     4
-1.7100000000e-08     4     2     2     5
-1.2550000000e-06     4     2     3     1
-2.3421700000e-05     4     2     3     3
 8.4611883000e-03     4     2     3     4
-4.0000000000e-09     4     2     3     5
-4.8000000000e-09     4     2     5     1
-2.0000000000e-09     4     2     5     3
-1.9424000000e-05     4     2     5     4
-2.3570600000e-05     4     2     5     5
-8.3910000000e-07     4     3     1     1
-1.7118000000e-06     4     3     1     2
-3.8924107100e-02     4     3     1     4
 1.4900000000e-08     4     3     1     5
-2.9668000000e-06     4     3     2     1
-4.4867000000e-06     4     3     2     2
 8.4611883000e-03     4     3     2     4
-2.0000000000e-09     4     3     2     5
-2.2871700000e-05     4     3     3     1
 2.3421700000e-05     4     3     3     2
-3.2364502010e-01     4     3     3     4
-1.9900000000e-08     4     3     3     5
-5.9000000000e-09     4     3     5     1
 2.0000000000e-09     4     3     5     2
 2.1740000000e-06     4     3     5     4
 1.1240000000e-07     4     3     5     5
 2.9280307740e-01     4     4     1     1
-8.3314059400e-02     4     4     1     2
 3.8924107100e-02     4     4     1     3
-6.4256200000e-05     4     4     1     5
-8.3314059400e-02     4     4     2     1
 2.6272490900e-01     4     4     2     2
-8.4611883000e-03     4     4     2     3
 1.9424000000e-05     4     4     2     5
 3.8924107100e-02     4     4     3     1
-8.4611883000e-03     4     4     3     2
 3.2364502010e-01     4     4     3     3
-2.1740000000e-06     4     4     3     5
-6.4256200000e-05     4     4     5     1
 1.9424000000e-05     4     4     5     2
-2.1740000000e-06     4     4     5     3
 3.2547069390e-01     4     4     5     5
 2.0100000000e-08     4     5     1     1
-5.9000000000e-09     4     5     1     2
-1.4900000000e-08     4     5     1     3
 6.4256200000e-05     4     5     1     4
-1.0700000000e-08     4     5     2     1
 1.7100000000e-08     4     5     2     2
 2.0000000000e-09     4     5     2     3
-1.9424000000e-05     4     5     2     4
-2.0800000000e-08     4     5     3     1
 4.0000000000e-09     4     5     3     2
 1.9900000000e-08     4     5     3     3
 2.1740000000e-06     4     5     3     4
-2.3113200000e-05     4     5     5     1
 2.3570600000e-05     4     5     5     2
-1.1240000000e-07     4     5     5     3
-3.2547069390e-01     4     5     5     4
-8.1488000000e-06     5     1     1     2
-1.2111000000e-06     5     1     1     3
-2.0100000000e-08     5     1     1     4
-2.9277534910e-01     5     1     1     5
-4.2735900000e-05     5     1     2     2
-5.3641000000e-06     5     1     2     3
 5.9000000000e-09     5     1     2     4
 8.3298372000e-02     5     1     2     5
-1.0960000000e-07     5     1     3     2
-6.3703100000e-05     5     1     3     3
 1.4900000000e-08     5     1     3     4
-3.8921462500e-02     5     1     3     5
-4.8000000000e-09     5     1     4     2
-5.9000000000e-09     5     1     4     3
-6.4256200000e-05     5     1     4     4
-2.3113200000e-05     5     1     4     5
 8.1488000000e-06     5     2     1     1
-5.2545000000e-06     5     2     1     3
 1.0700000000e-08     5     2     1     4
 8.3298372000e-02     5     2     1     5
 4.2735900000e-05     5     2     2     1
-3.9001000000e-06     5     2     2     3
-1.7100000000e-08     5     2     2     4
-2.6270688750e-01     5     2     2     5
 1.0960000000e-07     5     2     3     1
 1.8637100000e-05     5     2     3     3
-2.0000000000e-09     5     2     3     4
 8.4578595000e-03     5     2     3     5
 4.8000000000e-09     5     2     4     1
 2.0000000000e-09     5     2     4     3
 1.9424000000e-05     5     2     4     4
 2.3570600000e-05     5     2     4     5
 1.2111000000e-06     5     3     1     1
 5.2545000000e-06     5     3     1     2
 2.0800000000e-08     5     3     1     4
-3.8921462500e-02     5     3     1     5
 5.3641000000e-06     5     3     2     1
 3.9001000000e-06     5     3     2     2
-4.0000000000e-09     5     3     2     4
 8.4578595000e-03     5     3     2     5
 6.3703100000e-05     5     3     3     1
-1.8637100000e-05     5     3     3     2
-1.9900000000e-08     5     3     3     4
-3.2361457230e-01     5     3     3     5
 5.9000000000e-09     5     3     4     1
-2.0000000000e-09     5     3     4     2
-2.1740000000e-06     5     3     4     4
-1.1240000000e-07     5     3     4     5
 2.0100000000e-08     5     4     1     1
-1.0700000000e-08     5     4     1     2
-2.0800000000e-08     5     4     1     3
-2.3113200000e-05     5     4     1     5
-5.9000000000e-09     5     4     2     1
 1.7100000000e-08     5     4     2     2
 4.0000000000e-09     5     4     2     3
 2.3570600000e-05     5     4     2     5
-1.4900000000e-08     5     4     3     1
 2.0000000000e-09     5     4     3     2
 1.9900000000e-08     5     4     3     3
-1.1240000000e-07     5     4     3     5
 6.4256200000e-05     5     4     4     1
-1.9424000000e-05     5     4     4     2
 2.1740000000e-06     5     4     4     3
-3.2547069390e-01     5     4     4     5
 2.9277534910e-01     5     5     1     1
-8.3298372000e-02     5     5     1     2
 3.8921462500e-02     5     5     1     3
 2.3113200000e-05     5     5     1     4
-8.3298372000e-02     5     5     2     1
 2.6270688750e-01     5     5     2     2
-8.4578595000e-03     5     5     2     3
-2.3570600000e-05     5     5     2     4
 3.8921462500e-02     5     5     3     1
-8.4578595000e-03     5     5     3     2
 3.2361457230e-01     5     5     3     3
 1.1240000000e-07     5     5     3     4
 2.3113200000e-05     5     5     4     1
-2.3570600000e-05     5     5     4     2
 1.1240000000e-07     5     5     4     3
 3.2547069390e-01     5     5     4     4
0.0 0 0 0 0
 2.0250797660e-01     1     1     2     2
-2.3238126000e-03     1     1     2     3
-1.5552500000e-05     1     1     2     4
 8.1488000000e-06     1     1     2     5
-2.3238126000e-03     1     1     3     2
 2.8903178430e-01     1     1     3     3
-8.3910000000e-07     1     1     3     4
 1.2111000000e-06     1     1     3     5
-1.5552500000e-05     1     1     4     2
-8.3910000000e-07     1     1     4     3
 2.9280307740e-01     1     1     4     4
 2.0100000000e-08     1     1     4     5
 8.1488000000e-06     1     1     5     2
 1.2111000000e-06     1     1     5     3
 2.0100000000e-08     1     1     5     4
 2.9277534910e-01     1     1     5     5
-2.0250797660e-01     1     2     2     1
-2.7974855700e-02     1     2     2     3
-2.7022000000e-06     1     2     2     4
 4.2735900000e-05     1     2     2     5
 2.3238126000e-03     1     2     3     1
-8.4475761600e-02     1     2     3     3
-2.9668000000e-06     1     2     3     4
 5.3641000000e-06     1     2     3     5
 1.5552500000e-05     1     2     4     1
-1.7118000000e-06     1     2     4     3
-8.3314059400e-02     1     2     4     4
-5.9000000000e-09     1     2     4     5
-8.1488000000e-06     1     2     5     1
 5.2545000000e-06     1     2     5     3
-1.0700000000e-08     1     2     5     4
-8.3298372000e-02     1     2     5     5
 2.3238126000e-03     1     3     2     1
 2.7974855700e-02     1     3     2     2
-1.2550000000e-06     1     3     2     4
 1.0960000000e-07     1     3     2     5
-2.8903178430e-01     1     3     3     1
 8.4475761600e-02     1     3     3     2
-2.2871700000e-05     1     3     3     4
 6.3703100000e-05     1     3     3     5
 8.3910000000e-07     1     3     4     1
 1.7118000000e-06     1     3     4     2
 3.8924107100e-02     1     3     4     4
-1.4900000000e-08     1     3     4     5
-1.2111000000e-06     1     3     5     1
-5.2545000000e-06     1     3     5     2
-2.0800000000e-08     1     3     5     4
 3.8921462500e-02     1     3     5     5
 1.5552500000e-05     1     4     2     1
 2.7022000000e-06     1     4     2     2
 1.2550000000e-06     1     4     2     3
 4.8000000000e-09     1     4     2     5
 8.3910000000e-07     1     4     3     1
 2.9668000000e-06     1     4     3     2
 2.2871700000e-05     1     4     3     3
 5.9000000000e-09     1     4     3     5
-2.9280307740e-01     1     4     4     1
 8.3314059400e-02     1     4     4     2
-3.8924107100e-02     1     4     4     3
 6.4256200000e-05     1     4     4     5
-2.0100000000e-08     1     4     5     1
 1.0700000000e-08     1     4     5     2
 2.0800000000e-08     1     4     5     3
 2.3113200000e-05     1     4     5     5
-8.1488000000e-06     1     5     2     1
-4.2735900000e-05     1     5     2     2
-1.0960000000e-07     1     5     2     3
-4.8000000000e-09     1     5     2     4
-1.2111000000e-06     1     5     3     1
-5.3641000000e-06     1     5     3     2
-6.3703100000e-05     1     5     3     3
-5.9000000000e-09     1     5     3     4
-2.0100000000e-08     1     5     4     1
 5.9000000000e-09     1     5     4     2
 1.4900000000e-08     1     5     4     3
-6.4256200000e-05     1     5     4     4
-2.9277534910e-01     1     5     5     1
 8.3298372000e-02     1     5     5     2
-3.8921462500e-02     1     5     5     3
-2.3113200000e-05     1     5     5     4
-2.0250797660e-01     2     1     1     2
 2.3238126000e-03     2     1     1     3
 1.5552500000e-05     2     1     1     4
-8.1488000000e-06     2     1     1     5
-2.7974855700e-02     2     1     3     2
-8.4475761600e-02     2     1     3     3
-1.7118000000e-06     2     1     3     4
 5.2545000000e-06     2     1     3     5
-2.7022000000e-06     2     1     4     2
-2.9668000000e-06     2     1     4     3
-8.3314059400e-02     2     1     4     4
-1.0700000000e-08     2     1     4     5
 4.2735900000e-05     2     1     5     2
 5.3641000000e-06     2     1     5     3
-5.9000000000e-09     2     1     5     4
-8.3298372000e-02     2     1     5     5
 2.0250797660e-01     2     2     1     1
 2.7974855700e-02     2     2     1     3
 2.7022000000e-06     2     2     1     4
-4.2735900000e-05     2     2     1     5
 2.7974855700e-02     2     2     3     1
 2.5899775220e-01     2     2     3     3
-4.4867000000e-06     2     2     3     4
 3.9001000000e-06     2     2     3     5
 2.7022000000e-06     2     2     4     1
-4.4867000000e-06     2     2     4     3
 2.6272490900e-01     2     2     4     4
 1.7100000000e-08     2     2     4     5
-4.2735900000e-05     2     2     5     1
 3.9001000000e-06     2     2     5     3
 1.7100000000e-08     2     2     5     4
 2.6270688750e-01     2     2     5     5
-2.3238126000e-03     2     3     1     1
-2.7974855700e-02     2     3     1     2
 1.2550000000e-06     2     3     1     4
-1.0960000000e-07     2     3     1     5
 8.4475761600e-02     2     3     3     1
-2.5899775220e-01     2     3     3     2
 2.3421700000e-05     2     3     3     4
-1.8637100000e-05     2     3     3     5
 2.9668000000e-06     2     3     4     1
 4.4867000000e-06     2     3     4     2
-8.4611883000e-03     2     3     4     4
 2.0000000000e-09     2     3     4     5
-5.3641000000e-06     2     3     5     1
-3.9001000000e-06     2     3     5     2
 4.0000000000e-09     2     3     5     4
-8.4578595000e-03     2     3     5     5
-1.5552500000e-05     2     4     1     1
-2.7022000000e-06     2     4     1     2
-1.2550000000e-06     2     4     1     3
-4.8000000000e-09     2     4     1     5
 1.7118000000e-06     2     4     3     1
 4.4867000000e-06     2     4     3     2
-2.3421700000e-05     2     4     3     3
-2.0000000000e-09     2     4     3     5
 8.3314059400e-02     2     4     4     1
-2.6272490900e-01     2     4     4     2
 8.4611883000e-03     2     4     4     3
-1.9424000000e-05     2     4     4     5
 5.9000000000e-09     2     4     5     1
-1.7100000000e-08     2     4     5     2
-4.0000000000e-09     2     4     5     3
-2.3570600000e-05     2     4     5     5
 8.1488000000e-06     2     5     1     1
 4.2735900000e-05     2     5     1     2
 1.0960000000e-07     2     5     1     3
 4.8000000000e-09     2     5     1     4
-5.2545000000e-06     2     5     3     1
-3.9001000000e-06     2     5     3     2
 1.8637100000e-05     2     5     3     3
 2.0000000000e-09     2     5     3     4
 1.0700000000e-08     2     5     4     1
-1.7100000000e-08     2     5     4     2
-2.0000000000e-09     2     5     4     3
 1.9424000000e-05     2     5     4     4
 8.3298372000e-02     2     5     5     1
-2.6270688750e-01     2     5     5     2
 8.4578595000e-03     2     5     5     3
 2.3570600000e-05     2     5     5     4
 2.3238126000e-03     3     1     1     2
-2.8903178430e-01     3     1     1     3
 8.3910000000e-07     3     1     1     4
-1.2111000000e-06     3     1     1     5
 2.7974855700e-02     3     1     2     2
 8.4475761600e-02     3     1     2     3
 1.7118000000e-06     3     1     2     4
-5.2545000000e-06     3     1     2     5
-1.2550000000e-06     3     1     4     2
-2.2871700000e-05     3     1     4     3
 3.8924107100e-02     3     1     4     4
-2.0800000000e-08     3     1     4     5
 1.0960000000e-07     3     1     5     2
 6.3703100000e-05     3     1     5     3
-1.4900000000e-08     3     1     5     4
 3.8921462500e-02     3     1     5     5
-2.3238126000e-03     3     2     1     1
 8.4475761600e-02     3     2     1     3
 2.9668000000e-06     3     2     1     4
-5.3641000000e-06     3     2     1     5
-2.7974855700e-02     3     2     2     1
-2.5899775220e-01     3     2     2     3
 4.4867000000e-06     3     2     2     4
-3.9001000000e-06     3     2     2     5
 1.2550000000e-06     3     2     4     1
 2.3421700000e-05     3     2     4     3
-8.4611883000e-03     3     2     4     4
 4.0000000000e-09     3     2     4     5
-1.0960000000e-07     3     2     5     1
-1.8637100000e-05     3     2     5     3
 2.0000000000e-09     3     2     5     4
-8.4578595000e-03     3     2     5     5
 2.8903178430e-01     3     3     1     1
-8.4475761600e-02     3     3     1     2
 2.2871700000e-05     3     3     1     4
-6.3703100000e-05     3     3     1     5
-8.4475761600e-02     3     3     2     1
 2.5899775220e-01     3     3     2     2
-2.3421700000e-05     3     3     2     4
 1.8637100000e-05     3     3     2     5
 2.2871700000e-05     3     3     4     1
-2.3421700000e-05     3     3     4     2
 3.2364502010e-01     3     3     4     4
 1.9900000000e-08     3     3     4     5
-6.3703100000e-05     3     3     5     1
 1.8637100000e-05     3     3     5     2
 1.9900000000e-08     3     3     5     4
 3.2361457230e-01     3     3     5     5
-8.3910000000e-07     3     4     1     1
-2.9668000000e-06     3     4     1     2
-2.2871700000e-05     3     4     1     3
-5.9000000000e-09     3     4     1     5
-1.7118000000e-06     3     4     2     1
-4.4867000000e-06     3     4     2     2
 2.3421700000e-05     3     4     2     3
 2.0000000000e-09     3     4     2     5
-3.8924107100e-02     3     4     4     1
 8.4611883000e-03     3     4     4     2
-3.2364502010e-01     3     4     4     3
 2.1740000000e-06     3     4     4     5
 1.4900000000e-08     3     4     5     1
-2.0000000000e-09     3     4     5     2
-1.9900000000e-08     3     4     5     3
 1.1240000000e-07     3     4     5     5
 1.2111000000e-06     3     5     1     1
 5.3641000000e-06     3     5     1     2
 6.3703100000e-05     3     5     1     3
 5.9000000000e-09     3     5     1     4
 5.2545000000e-06     3     5     2     1
 3.9001000000e-06     3     5     2     2
-1.8637100000e-05     3     5     2     3
-2.0000000000e-09     3     5     2     4
 2.0800000000e-08     3     5     4     1
-4.0000000000e-09     3     5     4     2
-1.9900000000e-08     3     5     4     3
-2.1740000000e-06     3     5     4     4
-3.8921462500e-02     3     5     5     1
 8.4578595000e-03     3     5     5     2
-3.2361457230e-01     3     5     5     3
-1.1240000000e-07     3     5     5     4
 1.5552500000e-05     4     1     1     2
 8.3910000000e-07     4     1     1     3
-2.9280307740e-01     4     1     1     4
-2.0100000000e-08     4     1     1     5
 2.7022000000e-06     4     1     2     2
 2.9668000000e-06     4     1     2     3
 8.3314059400e-02     4     1     2     4
 1.0700000000e-08     4     1     2     5
 1.2550000000e-06     4     1     3     2
 2.2871700000e-05     4     1     3     3
-3.8924107100e-02     4     1     3     4
 2.0800000000e-08     4     1     3     5
 4.8000000000e-09     4     1     5     2
 5.9000000000e-09     4     1     5     3
 6.4256200000e-05     4     1     5     4
 2.3113200000e-05     4     1     5     5
-1.5552500000e-05     4     2     1     1
 1.7118000000e-06     4     2     1     3
 8.3314059400e-02     4     2     1     4
 5.9000000000e-09     4     2     1     5
-2.7022000000e-06     4     2     2     1
 4.4867000000e-06     4     2     2     3
-2.6272490900e-01     4     2     2     4
-1.7100000000e-08     4     2     2     5
-1.2550000000e-06     4     2     3     1
-2.3421700000e-05     4     2     3     3
 8.4611883000e-03     4     2     3     4
-4.0000000000e-09     4     2     3     5
-4.8000000000e-09     4     2     5     1
-2.0000000000e-09     4     2     5     3
-1.9424000000e-05     4     2     5     4
-2.3570600000e-05     4     2     5     5
-8.3910000000e-07     4     3     1     1
-1.7118000000e-06     4     3     1     2
-3.8924107100e-02     4     3     1     4
 1.4900000000e-08     4     3     1     5
-2.9668000000e-06     4     3     2     1
-4.4867000000e-06     4     3     2     2
 8.4611883000e-03     4     3     2     4
-2.0000000000e-09     4     3     2     5
-2.2871700000e-05     4     3     3     1
 2.3421700000e-05     4     3     3     2
-3.2364502010e-01     4     3     3     4
-1.9900000000e-08     4     3     3     5
-5.9000000000e-09     4     3     5     1
 2.0000000000e-09     4     3     5     2
 2.1740000000e-06     4     3     5     4
 1.1240000000e-07     4     3     5     5
 2.9280307740e-01     4     4     1     1
-8.3314059400e-02     4     4     1     2
 3.8924107100e-02     4     4     1     3
-6.4256200000e-05     4     4     1     5
-8.3314059400e-02     4     4     2     1
 2.6272490900e-01     4     4     2     2
-8.4611883000e-03     4     4     2     3
 1.9424000000e-05     4     4     2     5
 3.8924107100e-02     4     4     3     1
-8.4611883000e-03     4     4     3     2
 3.2364502010e-01     4     4     3     3
-2.1740000000e-06     4     4     3     5
-6.4256200000e-05     4     4     5     1
 1.9424000000e-05     4     4     5     2
-2.1740000000e-06     4     4     5     3
 3.2547069390e-01     4     4     5     5
 2.0100000000e-08     4     5     1     1
-5.9000000000e-09     4     5     1     2
-1.4900000000e-08     4     5     1     3
 6.4256200000e-05     4     5     1     4
-1.0700000000e-08     4     5     2     1
 1.7100000000e-08     4     5     2     2
 2.0000000000e-09     4     5     2     3
-1.9424000000e-05     4     5     2     4