&FCI NORB=  5,NELEC=  2,MS2=0,
 ORBSYM=1,1,1,1,1
 ISYM=1,
&END
 8.3605374900e-02     1     1     2     2
 2.7146353900e-02     1     1     2     3
-1.5750957000e-03     1     1     2     4
-3.3048000000e-06     1     1     2     5
 2.7146353900e-02     1     1     3     2
 2.4461622020e-01     1     1     3     3
-4.0120680000e-04     1     1     3     4
-6.0230000000e-07     1     1     3     5
-1.5750957000e-03     1     1     4     2
-4.0120680000e-04     1     1     4     3
 2.7565092440e-01     1     1     4     4
-2.3072000000e-06     1     1     4     5
-3.3048000000e-06     1     1     5     2
-6.0230000000e-07     1     1     5     3
-2.3072000000e-06     1     1     5     4
 2.7727506290e-01     1     1     5     5
-8.3605374900e-02     1     2     2     1
-1.5664361700e-02     1     2     2     3
-7.5096518000e-03     1     2     2     4
-1.5202200000e-05     1     2     2     5
-2.7146353900e-02     1     2     3     1
-8.4379552200e-02     1     2     3     3
 2.0959512000e-03     1     2     3     4
 4.0603000000e-06     1     2     3     5
 1.5750957000e-03     1     2     4     1
 2.9364040000e-03     1     2     4     3
-1.1057712130e-01     1     2     4     4
 1.6886000000e-06     1     2     4     5
 3.3048000000e-06     1     2     5     1
 5.7934000000e-06     1     2     5     3
 1.7266000000e-06     1     2     5     4
-1.1168024010e-01     1     2     5     5
-2.7146353900e-02     1     3     2     1
 1.5664361700e-02     1     3     2     2
-8.4045280000e-04     1     3     2     4
-1.7331000000e-06     1     3     2     5
-2.4461622020e-01     1     3     3     1
 8.4379552200e-02     1     3     3     2
-8.6433264000e-03     1     3     3     4
-1.7677000000e-05     1     3     3     5
 4.0120680000e-04     1     3     4     1
-2.9364040000e-03     1     3     4     2
-6.6724924100e-02     1     3     4     4
 6.0500000000e-07     1     3     4     5
 6.0230000000e-07     1     3     5     1
-5.7934000000e-06     1     3     5     2
 6.4450000000e-07     1     3     5     4
-6.7237114500e-02     1     3     5     5
 1.5750957000e-03     1     4     2     1
 7.5096518000e-03     1     4     2     2
 8.4045280000e-04     1     4     2     3
-3.8000000000e-08     1     4     2     5
 4.0120680000e-04     1     4     3     1
-2.0959512000e-03     1     4     3     2
 8.6433264000e-03     1     4     3     3
-3.9500000000e-08     1     4     3     5
-2.7565092440e-01     1     4     4     1
 1.1057712130e-01     1     4     4     2
 6.6724924100e-02     1     4     4     3
-2.1754100000e-05     1     4     4     5
 2.3072000000e-06     1     4     5     1
-1.7266000000e-06     1     4     5     2
-6.4450000000e-07     1     4     5     3
 1.0741032400e-02     1     4     5     5
 3.3048000000e-06     1     5     2     1
 1.5202200000e-05     1     5     2     2
 1.7331000000e-06     1     5     2     3
 3.8000000000e-08     1     5     2     4
 6.0230000000e-07     1     5     3     1
-4.0603000000e-06     1     5     3     2
 1.7677000000e-05     1     5     3     3
 3.9500000000e-08     1     5     3     4
 2.3072000000e-06     1     5     4     1
-1.6886000000e-06     1     5     4     2
-6.0500000000e-07     1     5     4     3
 2.1754100000e-05     1     5     4     4
-2.7727506290e-01     1     5     5     1
 1.1168024010e-01     1     5     5     2
 6.7237114500e-02     1     5     5     3
-1.0741032400e-02     1     5     5     4
-8.3605374900e-02     2     1     1     2
-2.7146353900e-02     2     1     1     3
 1.5750957000e-03     2     1     1     4
 3.3048000000e-06     2     1     1     5
-1.5664361700e-02     2     1     3     2
-8.4379552200e-02     2     1     3     3
 2.9364040000e-03     2     1     3     4
 5.7934000000e-06     2     1     3     5
-7.5096518000e-03     2     1     4     2
 2.0959512000e-03     2     1     4     3
-1.1057712130e-01     2     1     4     4
 1.7266000000e-06     2     1     4     5
-1.5202200000e-05     2     1     5     2
 4.0603000000e-06     2     1     5     3
 1.6886000000e-06     2     1     5     4
-1.1168024010e-01     2     1     5     5
 8.3605374900e-02     2     2     1     1
 1.5664361700e-02     2     2     1     3
 7.5096518000e-03     2     2     1     4
 1.5202200000e-05     2     2     1     5
 1.5664361700e-02     2     2     3     1
 1.2573769460e-01     2     2     3     3
 3.7297758000e-03     2     2     3     4
 7.5871000000e-06     2     2     3     5
 7.5096518000e-03     2     2     4     1
 3.7297758000e-03     2     2     4     3
 1.4836133070e-01     2     2     4     4
 2.1850000000e-06     2     2     4     5
 1.5202200000e-05     2     2     5     1
 7.5871000000e-06     2     2     5     3
 2.1850000000e-06     2     2     5     4
 1.4747989770e-01     2     2     5     5
 2.7146353900e-02     2     3     1     1
-1.5664361700e-02     2     3     1     2
 8.4045280000e-04     2     3     1     4
 1.7331000000e-06     2     3     1     5
 8.4379552200e-02     2     3     3     1
-1.2573769460e-01     2     3     3     2
 1.5831001000e-03     2     3     3     4
 3.4749000000e-06     2     3     3     5
-2.0959512000e-03     2     3     4     1
-3.7297758000e-03     2     3     4     2
 7.3734525500e-02     2     3     4     4
-1.6099000000e-06     2     3     4     5
-4.0603000000e-06     2     3     5     1
-7.5871000000e-06     2     3     5     2
-1.6529000000e-06     2     3     5     4
 7.4734024300e-02     2     3     5     5
-1.5750957000e-03     2     4     1     1
-7.5096518000e-03     2     4     1     2
-8.4045280000e-04     2     4     1     3
 3.8000000000e-08     2     4     1     5
-2.9364040000e-03     2     4     3     1
-3.7297758000e-03     2     4     3     2
-1.5831001000e-03     2     4     3     3
 4.3000000000e-08     2     4     3     5
 1.1057712130e-01     2     4     4     1
-1.4836133070e-01     2     4     4     2
-7.3734525500e-02     2     4     4     3
 6.7318000000e-06     2     4     4     5
-1.6886000000e-06     2     4     5     1
-2.1850000000e-06     2     4     5     2
 1.6529000000e-06     2     4     5     3
-3.2632464000e-03     2     4     5     5
-3.3048000000e-06     2     5     1     1
-1.5202200000e-05     2     5     1     2
-1.7331000000e-06     2     5     1     3
-3.8000000000e-08     2     5     1     4
-5.7934000000e-06     2     5     3     1
-7.5871000000e-06     2     5     3     2
-3.4749000000e-06     2     5     3     3
-4.3000000000e-08     2     5     3     4
-1.7266000000e-06     2     5     4     1
-2.1850000000e-06     2     5     4     2
 1.6099000000e-06     2     5     4     3
-6.7318000000e-06     2     5     4     4
 1.1168024010e-01     2     5     5     1
-1.4747989770e-01     2     5     5     2
-7.4734024300e-02     2     5     5     3
 3.2632464000e-03     2     5     5     4
-2.7146353900e-02     3     1     1     2
-2.4461622020e-01     3     1     1     3
 4.0120680000e-04     3     1     1     4
 6.0230000000e-07     3     1     1     5
 1.5664361700e-02     3     1     2     2
 8.4379552200e-02     3     1     2     3
-2.9364040000e-03     3     1     2     4
-5.7934000000e-06     3     1     2     5
-8.4045280000e-04     3     1     4     2
-8.6433264000e-03     3     1     4     3
-6.6724924100e-02     3     1     4     4
 6.4450000000e-07     3     1     4     5
-1.7331000000e-06     3     1     5     2
-1.7677000000e-05     3     1     5     3
 6.0500000000e-07     3     1     5     4
-6.7237114500e-02     3     1     5     5
 2.7146353900e-02     3     2     1     1
 8.4379552200e-02     3     2     1     3
-2.0959512000e-03     3     2     1     4
-4.0603000000e-06     3     2     1     5
-1.5664361700e-02     3     2     2     1
-1.2573769460e-01     3     2     2     3
-3.7297758000e-03     3     2     2     4
-7.5871000000e-06     3     2     2     5
 8.4045280000e-04     3     2     4     1
 1.5831001000e-03     3     2     4     3
 7.3734525500e-02     3     2     4     4
-1.6529000000e-06     3     2     4     5
 1.7331000000e-06     3     2     5     1
 3.4749000000e-06     3     2     5     3
-1.6099000000e-06     3     2     5     4
 7.4734024300e-02     3     2     5     5
 2.4461622020e-01     3     3     1     1
-8.4379552200e-02     3     3     1     2
 8.6433264000e-03     3     3     1     4
 1.7677000000e-05     3     3     1     5
-8.4379552200e-02     3     3     2     1
 1.2573769460e-01     3     3     2     2
-1.5831001000e-03     3     3     2     4
-3.4749000000e-06     3     3     2     5
 8.6433264000e-03     3     3     4     1
-1.5831001000e-03     3     3     4     2
 3.1471862860e-01     3     3     4     4
-2.8260000000e-06     3     3     4     5
 1.7677000000e-05     3     3     5     1
-3.4749000000e-06     3     3     5     2
-2.8260000000e-06     3     3     5     4
 3.1672392140e-01     3     3     5     5
-4.0120680000e-04     3     4     1     1
 2.0959512000e-03     3     4     1     2
-8.6433264000e-03     3     4     1     3
 3.9500000000e-08     3     4     1     5
 2.9364040000e-03     3     4     2     1
 3.7297758000e-03     3     4     2     2
 1.5831001000e-03     3     4     2     3
-4.3000000000e-08     3     4     2     5
 6.6724924100e-02     3     4     4     1
-7.3734525500e-02     3     4     4     2
-3.1471862860e-01     3     4     4     3
 4.3031000000e-06     3     4     4     5
-6.0500000000e-07     3     4     5     1
 1.6099000000e-06     3     4     5     2
 2.8260000000e-06     3     4     5     3
-2.2756881000e-03     3     4     5     5
-6.0230000000e-07     3     5     1     1
 4.0603000000e-06     3     5     1     2
-1.7677000000e-05     3     5     1     3
-3.9500000000e-08     3     5     1     4
 5.7934000000e-06     3     5     2     1
 7.5871000000e-06     3     5     2     2
 3.4749000000e-06     3     5     2     3
 4.3000000000e-08     3     5     2     4
-6.4450000000e-07     3     5     4     1
 1.6529000000e-06     3     5     4     2
 2.8260000000e-06     3     5     4     3
-4.3031000000e-06     3     5     4     4
 6.7237114500e-02     3     5     5     1
-7.4734024300e-02     3     5     5     2
-3.1672392140e-01     3     5     5     3
 2.2756881000e-03     3     5     5     4
 1.5750957000e-03     4     1     1     2
 4.0120680000e-04     4     1     1     3
-2.7565092440e-01     4     1     1     4
 2.3072000000e-06     4     1     1     5
 7.5096518000e-03     4     1     2     2
-2.0959512000e-03     4     1     2     3
 1.1057712130e-01     4     1     2     4
-1.7266000000e-06     4     1     2     5
 8.4045280000e-04     4     1     3     2
 8.6433264000e-03     4     1     3     3
 6.6724924100e-02     4     1     3     4
-6.4450000000e-07     4     1     3     5
-3.8000000000e-08     4     1     5     2
-3.9500000000e-08     4     1     5     3
-2.1754100000e-05     4     1     5     4
 1.0741032400e-02     4     1     5     5
-1.5750957000e-03     4     2     1     1
-2.9364040000e-03     4     2     1     3
 1.1057712130e-01     4     2     1     4
-1.6886000000e-06     4     2     1     5
-7.5096518000e-03     4     2     2     1
-3.7297758000e-03     4     2     2     3
-1.4836133070e-01     4     2     2     4
-2.1850000000e-06     4     2     2     5
-8.4045280000e-04     4     2     3     1
-1.5831001000e-03     4     2     3     3
-7.3734525500e-02     4     2     3     4
 1.6529000000e-06     4     2     3     5
 3.8000000000e-08     4     2     5     1
 4.3000000000e-08     4     2     5     3
 6.7318000000e-06     4     2     5     4
-3.2632464000e-03     4     2     5     5
-4.0120680000e-04     4     3     1     1
 2.9364040000e-03     4     3     1     2
 6.6724924100e-02     4     3     1     4
-6.0500000000e-07     4     3     1     5
 2.0959512000e-03     4     3     2     1
 3.7297758000e-03     4     3     2     2
-7.3734525500e-02     4     3     2     4
 1.6099000000e-06     4     3     2     5
-8.6433264000e-03     4     3     3     1
 1.5831001000e-03     4     3     3     2
-3.1471862860e-01     4     3     3     4
 2.8260000000e-06     4     3     3     5
 3.9500000000e-08     4     3     5     1
-4.3000000000e-08     4     3     5     2
 4.3031000000e-06     4     3     5     4
-2.2756881000e-03     4     3     5     5
 2.7565092440e-01     4     4     1     1
-1.1057712130e-01     4     4     1     2
-6.6724924100e-02     4     4     1     3
 2.1754100000e-05     4     4     1     5
-1.1057712130e-01     4     4     2     1
 1.4836133070e-01     4     4     2     2
 7.3734525500e-02     4     4     2     3
-6.7318000000e-06     4     4     2     5
-6.6724924100e-02     4     4     3     1
 7.3734525500e-02     4     4     3     2
 3.1471862860e-01     4     4     3     3
-4.3031000000e-06     4     4     3     5
 2.1754100000e-05     4     4     5     1
-6.7318000000e-06     4     4     5     2
-4.3031000000e-06     4     4     5     3
 3.4742118770e-01     4     4     5     5
-2.3072000000e-06     4     5     1     1
 1.6886000000e-06     4     5     1     2
 6.0500000000e-07     4     5     1     3
-2.1754100000e-05     4     5     1     4
 1.7266000000e-06     4     5     2     1
 2.1850000000e-06     4     5     2     2
-1.6099000000e-06     4     5     2     3
 6.7318000000e-06     4     5     2     4
 6.4450000000e-07     4     5     3     1
-1.6529000000e-06     4     5     3     2
-2.8260000000e-06     4     5     3     3
 4.3031000000e-06     4     5     3     4
-1.0741032400e-02     4     5     5     1
 3.2632464000e-03     4     5     5     2
 2.2756881000e-03     4     5     5     3
-3.4742118770e-01     4     5     5     4
 3.3048000000e-06     5     1     1     2
 6.0230000000e-07     5     1     1     3
 2.3072000000e-06     5     1     1     4
-2.7727506290e-01     5     1     1     5
 1.5202200000e-05     5     1     2     2
-4.0603000000e-06     5     1     2     3
-1.6886000000e-06     5     1     2     4
 1.1168024010e-01     5     1     2     5
 1.7331000000e-06     5     1     3     2
 1.7677000000e-05     5     1     3     3
-6.0500000000e-07     5     1     3     4
 6.7237114500e-02     5     1     3     5
 3.8000000000e-08     5     1     4     2
 3.9500000000e-08     5     1     4     3
 2.1754100000e-05     5     1     4     4
-1.0741032400e-02     5     1     4     5
-3.3048000000e-06     5     2     1     1
-5.7934000000e-06     5     2     1     3
-1.7266000000e-06     5     2     1     4
 1.1168024010e-01     5     2     1     5
-1.5202200000e-05     5     2     2     1
-7.5871000000e-06     5     2     2     3
-2.1850000000e-06     5     2     2     4
-1.4747989770e-01     5     2     2     5
-1.7331000000e-06     5     2     3     1
-3.4749000000e-06     5     2     3     3
 1.6099000000e-06     5     2     3     4
-7.4734024300e-02     5     2     3     5
-3.8000000000e-08     5     2     4     1
-4.3000000000e-08     5     2     4     3
-6.7318000000e-06     5     2     4     4
 3.2632464000e-03     5     2     4     5
-6.0230000000e-07     5     3     1     1
 5.7934000000e-06     5     3     1     2
-6.4450000000e-07     5     3     1     4
 6.7237114500e-02     5     3     1     5
 4.0603000000e-06     5     3     2     1
 7.5871000000e-06     5     3     2     2
 1.6529000000e-06     5     3     2     4
-7.4734024300e-02     5     3     2     5
-1.7677000000e-05     5     3     3     1
 3.4749000000e-06     5     3     3     2
 2.8260000000e-06     5     3     3     4
-3.1672392140e-01     5     3     3     5
-3.9500000000e-08     5     3     4     1
 4.3000000000e-08     5     3     4     2
-4.3031000000e-06     5     3     4     4
 2.2756881000e-03     5     3     4     5
-2.3072000000e-06     5     4     1     1
 1.7266000000e-06     5     4     1     2
 6.4450000000e-07     5     4     1     3
-1.0741032400e-02     5     4     1     5
 1.6886000000e-06     5     4     2     1
 2.1850000000e-06     5     4     2     2
-1.6529000000e-06     5     4     2     3
 3.2632464000e-03     5     4     2     5
 6.0500000000e-07     5     4     3     1
-1.6099000000e-06     5     4     3     2
-2.8260000000e-06     5     4     3     3
 2.2756881000e-03     5     4     3     5
-2.1754100000e-05     5     4     4     1
 6.7318000000e-06     5     4     4     2
 4.3031000000e-06     5     4     4     3
-3.4742118770e-01     5     4     4     5
 2.7727506290e-01     5     5     1     1
-1.1168024010e-01     5     5     1     2
-6.7237114500e-02     5     5     1     3
 1.0741032400e-02     5     5     1     4
-1.1168024010e-01     5     5     2     1
 1.4747989770e-01     5     5     2     2
 7.4734024300e-02     5     5     2     3
-3.2632464000e-03     5     5     2     4
-6.7237114500e-02     5     5     3     1
 7.4734024300e-02     5     5     3     2
 3.1672392140e-01     5     5     3     3
-2.2756881000e-03     5     5     3     4
 1.0741032400e-02     5     5     4     1
-3.2632464000e-03     5     5     4     2
-2.2756881000e-03     5     5     4     3
 3.4742118770e-01     5     5     4     4
0.0 0 0 0 0
 8.3605374900e-02     1     1     2     2
 2.7146353900e-02     1     1     2     3
-1.5750957000e-03     1     1     2     4
-3.3048000000e-06     1     1     2     5
 2.7146353900e-02     1     1     3     2
 2.4461622020e-01     1     1     3     3
-4.0120680000e-04     1     1     3     4
-6.0230000000e-07     1     1     3     5
-1.5750957000e-03     1     1     4     2
-4.0120680000e-04     1     1     4     3
 2.7565092440e-01     1     1     4     4
-2.3072000000e-06     1     1     4     5
-3.3048000000e-06     1     1     5     2
-6.0230000000e-07     1     1     5     3
-2.3072000000e-06     1     1     5     4
 2.7727506290e-01     1     1     5     5
-8.3605374900e-02     1     2     2     1
-1.5664361700e-02     1     2     2     3
-7.5096518000e-03     1     2     2     4
-1.5202200000e-05     1     2     2     5
-2.7146353900e-02     1     2     3     1
-8.4379552200e-02     1     2     3     3
 2.0959512000e-03     1     2     3     4
 4.0603000000e-06     1     2     3     5
 1.5750957000e-03     1     2     4     1
 2.9364040000e-03     1     2     4     3
-1.1057712130e-01     1     2     4     4
 1.6886000000e-06     1     2     4     5
 3.3048000000e-06     1     2     5     1
 5.7934000000e-06     1     2     5     3
 1.7266000000e-06     1     2     5     4
-1.1168024010e-01     1     2     5     5
-2.7146353900e-02     1     3     2     1
 1.5664361700e-02     1     3     2     2
-8.4045280000e-04     1     3     2     4
-1.7331000000e-06     1     3     2     5
-2.4461622020e-01     1     3     3     1
 8.4379552200e-02     1     3     3     2
-8.6433264000e-03     1     3     3     4
-1.7677000000e-05     1     3     3     5
 4.0120680000e-04     1     3     4     1
-2.9364040000e-03     1     3     4     2
-6.6724924100e-02     1     3     4     4
 6.0500000000e-07     1     3     4     5
 6.0230000000e-07     1     3     5     1
-5.7934000000e-06     1     3     5     2
 6.4450000000e-07     1     3     5     4
-6.7237114500e-02     1     3     5     5
 1.5750957000e-03     1     4     2     1
 7.5096518000e-03     1     4     2     2
 8.4045280000e-04     1     4     2     3
-3.8000000000e-08     1     4     2     5
 4.0120680000e-04     1     4     3     1
-2.0959512000e-03     1     4     3     2
 8.6433264000e-03     1     4     3     3
-3.9500000000e-08     1     4     3     5
-2.7565092440e-01     1     4     4     1
 1.1057712130e-01     1     4     4     2
 6.6724924100e-02     1     4     4     3
-2.1754100000e-05     1     4     4     5
 2.3072000000e-06     1     4     5     1
-1.7266000000e-06     1     4     5     2
-6.4450000000e-07     1     4     5     3
 1.0741032400e-02     1     4     5     5
 3.3048000000e-06     1     5     2     1
 1.5202200000e-05     1     5     2     2
 1.7331000000e-06     1     5     2     3
 3.8000000000e-08     1     5     2     4
 6.0230000000e-07     1     5     3     1
-4.0603000000e-06     1     5     3     2
 1.7677000000e-05     1     5     3     3
 3.9500000000e-08     1     5     3     4
 2.3072000000e-06     1     5     4     1
-1.6886000000e-06     1     5     4     2
-6.0500000000e-07     1     5     4     3
 2.1754100000e-05     1     5     4     4
-2.7727506290e-01     1     5     5     1
 1.1168024010e-01     1     5     5     2
 6.7237114500e-02     1     5     5     3
-1.0741032400e-02     1     5     5     4
-8.3605374900e-02     2     1     1     2
-2.7146353900e-02     2     1     1     3
 1.5750957000e-03     2     1     1     4
 3.3048000000e-06     2     1     1     5
-1.5664361700e-02     2     1     3     2
-8.4379552200e-02     2     1     3     3
 2.9364040000e-03     2     1     3     4
 5.7934000000e-06     2     1     3     5
-7.5096518000e-03     2     1     4     2
 2.0959512000e-03     2     1     4     3
-1.1057712130e-01     2     1     4     4
 1.7266000000e-06     2     1     4     5
-1.5202200000e-05     2     1     5     2
 4.0603000000e-06     2     1     5     3
 1.6886000000e-06     2     1     5     4
-1.1168024010e-01     2     1     5     5
 8.3605374900e-02     2     2     1     1
 1.5664361700e-02     2     2     1     3
 7.5096518000e-03     2     2     1     4
 1.5202200000e-05     2     2     1     5
 1.5664361700e-02     2     2     3     1
 1.2573769460e-01     2     2     3     3
 3.7297758000e-03     2     2     3     4
 7.5871000000e-06     2     2     3     5
 7.5096518000e-03     2     2     4     1
 3.7297758000e-03     2     2     4     3
 1.4836133070e-01     2     2     4     4
 2.1850000000e-06     2     2     4     5
 1.5202200000e-05     2     2     5     1
 7.5871000000e-06     2     2     5     3
 2.1850000000e-06     2     2     5     4
 1.4747989770e-01     2     2     5     5
 2.7146353900e-02     2     3     1     1
-1.5664361700e-02     2     3     1     2
 8.4045280000e-04     2     3     1     4
 1.7331000000e-06     2     3     1     5
 8.4379552200e-02     2     3     3     1
-1.2573769460e-01     2     3     3     2
 1.5831001000e-03     2     3     3     4
 3.4749000000e-06     2     3     3     5
-2.0959512000e-03     2     3     4     1
-3.7297758000e-03     2     3     4     2
 7.3734525500e-02     2     3     4     4
-1.6099000000e-06     2     3     4     5
-4.0603000000e-06     2     3     5     1
-7.5871000000e-06     2     3     5     2
-1.6529000000e-06     2     3     5     4
 7.4734024300e-02     2     3     5     5
-1.5750957000e-03     2     4     1     1
-7.5096518000e-03     2     4     1     2
-8.4045280000e-04     2     4     1     3
 3.8000000000e-08     2     4     1     5
-2.9364040000e-03     2     4     3     1
-3.7297758000e-03     2     4     3     2
-1.5831001000e-03     2     4     3     3
 4.3000000000e-08     2     4     3     5
 1.1057712130e-01     2     4     4     1
-1.4836133070e-01     2     4     4     2
-7.3734525500e-02     2     4     4     3
 6.7318000000e-06     2     4     4     5
-1.6886000000e-06     2     4     5     1
-2.1850000000e-06     2     4     5     2
 1.6529000000e-06     2     4     5     3
-3.2632464000e-03     2     4     5     5
-3.3048000000e-06     2     5     1     1
-1.5202200000e-05     2     5     1     2
-1.7331000000e-06     2     5     1     3
-3.8000000000e-08     2     5     1     4
-5.7934000000e-06     2     5     3     1
-7.5871000000e-06     2     5     3     2
-3.4749000000e-06     2     5     3     3
-4.3000000000e-08     2     5     3     4
-1.7266000000e-06     2     5     4     1
-2.1850000000e-06     2     5     4     2
 1.6099000000e-06     2     5     4     3
-6.7318000000e-06     2     5     4     4
 1.1168024010e-01     2     5     5     1
-1.4747989770e-01     2     5     5     2
-7.4734024300e-02     2     5     5     3
 3.2632464000e-03     2     5     5     4
-2.7146353900e-02     3     1     1     2
-2.4461622020e-01     3     1     1     3
 4.0120680000e-04     3     1     1     4
 6.0230000000e-07     3     1     1     5
 1.5664361700e-02     3     1     2     2
 8.4379552200e-02     3     1     2     3
-2.9364040000e-03     3     1     2     4
-5.7934000000e-06     3     1     2     5
-8.4045280000e-04     3     1     4     2
-8.6433264000e-03     3     1     4     3
-6.6724924100e-02     3     1     4     4
 6.4450000000e-07     3     1     4     5
-1.7331000000e-06     3     1     5     2
-1.7677000000e-05     3     1     5     3
 6.0500000000e-07     3     1     5     4
-6.7237114500e-02     3     1     5     5
 2.7146353900e-02     3     2     1     1
 8.4379552200e-02     3     2     1     3
-2.0959512000e-03     3     2     1     4
-4.0603000000e-06     3     2     1     5
-1.5664361700e-02     3     2     2     1
-1.2573769460e-01     3     2     2     3
-3.7297758000e-03     3     2     2     4
-7.5871000000e-06     3     2     2     5
 8.4045280000e-04     3     2     4     1
 1.5831001000e-03     3     2     4     3
 7.3734525500e-02     3     2     4     4
-1.6529000000e-06     3     2     4     5
 1.7331000000e-06     3     2     5     1
 3.4749000000e-06     3     2     5     3
-1.6099000000e-06     3     2     5     4
 7.4734024300e-02     3     2     5     5
 2.4461622020e-01     3     3     1     1
-8.4379552200e-02     3     3     1     2
 8.6433264000e-03     3     3     1     4
 1.7677000000e-05     3     3     1     5
-8.4379552200e-02     3     3     2     1
 1.2573769460e-01     3     3     2     2
-1.5831001000e-03     3     3     2     4
-3.4749000000e-06     3     3     2     5
 8.6433264000e-03     3     3     4     1
-1.5831001000e-03     3     3     4     2
 3.1471862860e-01     3     3     4     4
-2.8260000000e-06     3     3     4     5
 1.7677000000e-05     3     3     5     1
-3.4749000000e-06     3     3     5     2
-2.8260000000e-06     3     3     5     4
 3.1672392140e-01     3     3     5     5
-4.0120680000e-04     3     4     1     1
 2.0959512000e-03     3     4     1     2
-8.6433264000e-03     3     4     1     3
 3.9500000000e-08     3     4     1     5
 2.9364040000e-03     3     4     2     1
 3.7297758000e-03     3     4     2     2
 1.5831001000e-03     3     4     2     3
-4.3000000000e-08     3     4     2     5
 6.6724924100e-02     3     4     4     1
-7.3734525500e-02     3     4     4     2
-3.1471862860e-01     3     4     4     3
 4.3031000000e-06     3     4     4     5
-6.0500000000e-07     3     4     5     1
 1.6099000000e-06     3     4     5     2
 2.8260000000e-06     3     4     5     3
-2.2756881000e-03     3     4     5     5
-6.0230000000e-07     3     5     1     1
 4.0603000000e-06     3     5     1     2
-1.7677000000e-05     3     5     1     3
-3.9500000000e-08     3     5     1     4
 5.7934000000e-06     3     5     2     1
 7.5871000000e-06     3     5     2     2
 3.4749000000e-06     3     5     2     3
 4.3000000000e-08     3     5     2     4
-6.4450000000e-07     3     5     4     1
 1.6529000000e-06     3     5     4     2
 2.8260000000e-06     3     5     4     3
-4.3031000000e-06     3     5     4     4
 6.7237114500e-02     3     5     5     1
-7.4734024300e-02     3     5     5     2
-3.1672392140e-01     3     5     5     3
 2.2756881000e-03     3     5     5     4
 1.5750957000e-03     4     1     1     2
 4.0120680000e-04     4     1     1     3
-2.7565092440e-01     4     1     1     4
 2.3072000000e-06     4     1     1     5
 7.5096518000e-03     4     1     2     2
-2.0959512000e-03     4     1     2     3
 1.1057712130e-01     4     1     2     4
-1.7266000000e-06     4     1     2     5
 8.4045280000e-04     4     1     3     2
 8.6433264000e-03     4     1     3     3
 6.6724924100e-02     4     1     3     4
-6.4450000000e-07     4     1     3     5
-3.8000000000e-08     4     1     5     2
-3.9500000000e-08     4     1     5     3
-2.1754100000e-05     4     1     5     4
 1.0741032400e-02     4     1     5     5
-1.5750957000e-03     4     2     1     1
-2.9364040000e-03     4     2     1     3
 1.1057712130e-01     4     2     1     4
-1.6886000000e-06     4     2     1     5
-7.5096518000e-03     4     2     2     1
-3.7297758000e-03     4     2     2     3
-1.4836133070e-01     4     2     2     4
-2.1850000000e-06     4     2     2     5
-8.4045280000e-04     4     2     3     1
-1.5831001000e-03     4     2     3     3
-7.3734525500e-02     4     2     3     4
 1.6529000000e-06     4     2     3     5
 3.8000000000e-08     4     2     5     1
 4.3000000000e-08     4     2     5     3
 6.7318000000e-06     4     2     5     4
-3.2632464000e-03     4     2     5     5
-4.0120680000e-04     4     3     1     1
 2.9364040000e-03     4     3     1     2
 6.6724924100e-02     4     3     1     4
-6.0500000000e-07     4     3     1     5
 2.0959512000e-03     4     3     2     1
 3.7297758000e-03     4     3     2     2
-7.3734525500e-02     4     3     2     4
 1.6099000000e-06     4     3     2     5
-8.6433264000e-03     4     3     3     1
 1.5831001000e-03     4     3     3     2
-3.1471862860e-01     4     3     3     4
 2.8260000000e-06     4     3     3     5
 3.9500000000e-08     4     3     5     1
-4.3000000000e-08     4     3     5     2
 4.3031000000e-06     4     3     5     4
-2.2756881000e-03     4     3     5     5
 2.7565092440e-01     4     4     1     1
-1.1057712130e-01     4     4     1     2
-6.6724924100e-02     4     4     1     3
 2.1754100000e-05     4     4     1     5
-1.1057712130e-01     4     4     2     1
 1.4836133070e-01     4     4     2     2
 7.3734525500e-02     4     4     2     3
-6.7318000000e-06     4     4     2     5
-6.6724924100e-02     4     4     3     1
 7.3734525500e-02     4     4     3     2
 3.1471862860e-01     4     4     3     3
-4.3031000000e-06     4     4     3     5
 2.1754100000e-05     4     4     5     1
-6.7318000000e-06     4     4     5     2
-4.3031000000e-06     4     4     5     3
 3.4742118770e-01     4     4     5     5
-2.3072000000e-06     4     5     1     1
 1.6886000000e-06     4     5     1     2
 6.0500000000e-07     4     5     1     3
-2.1754100000e-05     4     5     1     4
 1.7266000000e-06     4     5     2     1
 2.1850000000e-06     4     5     2     2
-1.6099000000e-06     4     5     2     3
 6.7318000000e-06     4     5     2     4