&FCI NORB=  5,NELEC=  2,MS2=0,
 ORBSYM=1,1,1,1,1
 ISYM=1,
&END
 3.2911002940e-01     1     1     2     2
 4.5194000000e-06     1     1     2     3
 5.8120000000e-06     1     1     2     4
-6.7109931000e-03     1     1     2     5
 4.5194000000e-06     1     1     3     2
 3.6201202230e-01     1     1     3     3
 1.0700000000e-08     1     1     3     4
-1.4570400000e-05     1     1     3     5
 5.8120000000e-06     1     1     4     2
 1.0700000000e-08     1     1     4     3
 3.6201258590e-01     1     1     4     4
-1.8470300000e-05     1     1     4     5
-6.7109931000e-03     1     1     5     2
-1.4570400000e-05     1     1     5     3
-1.8470300000e-05     1     1     5     4
 3.8904052580e-01     1     1     5     5
-3.2911002940e-01     1     2     2     1
 1.1320400000e-05     1     2     2     3
 1.4028700000e-05     1     2     2     4
-1.3847592900e-02     1     2     2     5
-4.5194000000e-06     1     2     3     1
 1.0055082420e-01     1     2     3     3
 1.1000000000e-09     1     2     3     4
-1.2740000000e-06     1     2     3     5
-5.8120000000e-06     1     2     4     1
-9.0000000000e-10     1     2     4     3
 1.0055103140e-01     1     2     4     4
-1.6195000000e-06     1     2     4     5
 6.7109931000e-03     1     2     5     1
-1.7336000000e-06     1     2     5     3
-2.3734000000e-06     1     2     5     4
 1.0618202430e-01     1     2     5     5
-4.5194000000e-06     1     3     2     1
-1.1320400000e-05     1     3     2     2
 2.0000000000e-09     1     3     2     4
 4.5960000000e-07     1     3     2     5
-3.6201202230e-01     1     3     3     1
-1.0055082420e-01     1     3     3     2
 1.2689100000e-05     1     3     3     4
-1.2468213500e-02     1     3     3     5
-1.0700000000e-08     1     3     4     1
 9.0000000000e-10     1     3     4     2
-1.0361700000e-05     1     3     4     4
 9.0000000000e-10     1     3     4     5
 1.4570400000e-05     1     3     5     1
 1.7336000000e-06     1     3     5     2
-1.0000000000e-09     1     3     5     4
-1.2727600000e-05     1     3     5     5
-5.8120000000e-06     1     4     2     1
-1.4028700000e-05     1     4     2     2
-2.0000000000e-09     1     4     2     3
 7.5390000000e-07     1     4     2     5
-1.0700000000e-08     1     4     3     1
-1.1000000000e-09     1     4     3     2
-1.2689100000e-05     1     4     3     3
 1.9000000000e-09     1     4     3     5
-3.6201258590e-01     1     4     4     1
-1.0055103140e-01     1     4     4     2
 1.0361700000e-05     1     4     4     3
-1.2468171900e-02     1     4     4     5
 1.8470300000e-05     1     4     5     1
 2.3734000000e-06     1     4     5     2
 1.0000000000e-09     1     4     5     3
-1.5442000000e-05     1     4     5     5
 6.7109931000e-03     1     5     2     1
 1.3847592900e-02     1     5     2     2
-4.5960000000e-07     1     5     2     3
-7.5390000000e-07     1     5     2     4
 1.4570400000e-05     1     5     3     1
 1.2740000000e-06     1     5     3     2
 1.2468213500e-02     1     5     3     3
-1.9000000000e-09     1     5     3     4
 1.8470300000e-05     1     5     4     1
 1.6195000000e-06     1     5     4     2
-9.0000000000e-10     1     5     4     3
 1.2468171900e-02     1     5     4     4
-3.8904052580e-01     1     5     5     1
-1.0618202430e-01     1     5     5     2
 1.2727600000e-05     1     5     5     3
 1.5442000000e-05     1     5     5     4
-3.2911002940e-01     2     1     1     2
-4.5194000000e-06     2     1     1     3
-5.8120000000e-06     2     1     1     4
 6.7109931000e-03     2     1     1     5
 1.1320400000e-05     2     1     3     2
 1.0055082420e-01     2     1     3     3
-9.0000000000e-10     2     1     3     4
-1.7336000000e-06     2     1     3     5
 1.4028700000e-05     2     1     4     2
 1.1000000000e-09     2     1     4     3
 1.0055103140e-01     2     1     4     4
-2.3734000000e-06     2     1     4     5
-1.3847592900e-02     2     1     5     2
-1.2740000000e-06     2     1     5     3
-1.6195000000e-06     2     1     5     4
 1.0618202430e-01     2     1     5     5
 3.2911002940e-01     2     2     1     1
-1.1320400000e-05     2     2     1     3
-1.4028700000e-05     2     2     1     4
 1.3847592900e-02     2     2     1     5
-1.1320400000e-05     2     2     3     1
 3.6866103290e-01     2     2     3     3
 7.2000000000e-09     2     2     3     4
-1.1301000000e-05     2     2     3     5
-1.4028700000e-05     2     2     4     1
 7.2000000000e-09     2     2     4     3
 3.6866166280e-01     2     2     4     4
-1.4415900000e-05     2     2     4     5
 1.3847592900e-02     2     2     5     1
-1.1301000000e-05     2     2     5     3
-1.4415900000e-05     2     2     5     4
 3.9246741170e-01     2     2     5     5
 4.5194000000e-06     2     3     1     1
 1.1320400000e-05     2     3     1     2
-2.0000000000e-09     2     3     1     4
-4.5960000000e-07     2     3     1     5
-1.0055082420e-01     2     3     3     1
-3.6866103290e-01     2     3     3     2
-3.0153000000e-06     2     3     3     4
 3.8510978000e-03     2     3     3     5
-1.1000000000e-09     2     3     4     1
-7.2000000000e-09     2     3     4     2
 2.2644000000e-06     2     3     4     4
 9.0000000000e-10     2     3     4     5
 1.2740000000e-06     2     3     5     1
 1.1301000000e-05     2     3     5     2
-3.0000000000e-10     2     3     5     4
 1.5819000000e-06     2     3     5     5
 5.8120000000e-06     2     4     1     1
 1.4028700000e-05     2     4     1     2
 2.0000000000e-09     2     4     1     3
-7.5390000000e-07     2     4     1     5
 9.0000000000e-10     2     4     3     1
-7.2000000000e-09     2     4     3     2
 3.0153000000e-06     2     4     3     3
 1.2000000000e-09     2     4     3     5
-1.0055103140e-01     2     4     4     1
-3.6866166280e-01     2     4     4     2
-2.2644000000e-06     2     4     4     3
 3.8511427000e-03     2     4     4     5
 1.6195000000e-06     2     4     5     1
 1.4415900000e-05     2     4     5     2
 3.0000000000e-10     2     4     5     3
 2.2740000000e-06     2     4     5     5
-6.7109931000e-03     2     5     1     1
-1.3847592900e-02     2     5     1     2
 4.5960000000e-07     2     5     1     3
 7.5390000000e-07     2     5     1     4
 1.7336000000e-06     2     5     3     1
 1.1301000000e-05     2     5     3     2
-3.8510978000e-03     2     5     3     3
-1.2000000000e-09     2     5     3     4
 2.3734000000e-06     2     5     4     1
 1.4415900000e-05     2     5     4     2
-9.0000000000e-10     2     5     4     3
-3.8511427000e-03     2     5     4     4
-1.0618202430e-01     2     5     5     1
-3.9246741170e-01     2     5     5     2
-1.5819000000e-06     2     5     5     3
-2.2740000000e-06     2     5     5     4
-4.5194000000e-06     3     1     1     2
-3.6201202230e-01     3     1     1     3
-1.0700000000e-08     3     1     1     4
 1.4570400000e-05     3     1     1     5
-1.1320400000e-05     3     1     2     2
-1.0055082420e-01     3     1     2     3
 9.0000000000e-10     3     1     2     4
 1.7336000000e-06     3     1     2     5
 2.0000000000e-09     3     1     4     2
 1.2689100000e-05     3     1     4     3
-1.0361700000e-05     3     1     4     4
-1.0000000000e-09     3     1     4     5
 4.5960000000e-07     3     1     5     2
-1.2468213500e-02     3     1     5     3
 9.0000000000e-10     3     1     5     4
-1.2727600000e-05     3     1     5     5
 4.5194000000e-06     3     2     1     1
-1.0055082420e-01     3     2     1     3
-1.1000000000e-09     3     2     1     4
 1.2740000000e-06     3     2     1     5
 1.1320400000e-05     3     2     2     1
-3.6866103290e-01     3     2     2     3
-7.2000000000e-09     3     2     2     4
 1.1301000000e-05     3     2     2     5
-2.0000000000e-09     3     2     4     1
-3.0153000000e-06     3     2     4     3
 2.2644000000e-06     3     2     4     4
-3.0000000000e-10     3     2     4     5
-4.5960000000e-07     3     2     5     1
 3.8510978000e-03     3     2     5     3
 9.0000000000e-10     3     2     5     4
 1.5819000000e-06     3     2     5     5
 3.6201202230e-01     3     3     1     1
 1.0055082420e-01     3     3     1     2
-1.2689100000e-05     3     3     1     4
 1.2468213500e-02     3     3     1     5
 1.0055082420e-01     3     3     2     1
 3.6866103290e-01     3     3     2     2
 3.0153000000e-06     3     3     2     4
-3.8510978000e-03     3     3     2     5
-1.2689100000e-05     3     3     4     1
 3.0153000000e-06     3     3     4     2
 3.8577827040e-01     3     3     4     4
-1.2532900000e-05     3     3     4     5
 1.2468213500e-02     3     3     5     1
-3.8510978000e-03     3     3     5     2
-1.2532900000e-05     3     3     5     4
 4.0689742200e-01     3     3     5     5
 1.0700000000e-08     3     4     1     1
 1.1000000000e-09     3     4     1     2
 1.2689100000e-05     3     4     1     3
-1.9000000000e-09     3     4     1     5
-9.0000000000e-10     3     4     2     1
 7.2000000000e-09     3     4     2     2
-3.0153000000e-06     3     4     2     3
-1.2000000000e-09     3     4     2     5
 1.0361700000e-05     3     4     4     1
-2.2644000000e-06     3     4     4     2
-3.8577827040e-01     3     4     4     3
 9.7678000000e-06     3     4     4     5
-9.0000000000e-10     3     4     5     1
-9.0000000000e-10     3     4     5     2
 1.2532900000e-05     3     4     5     3
 6.4000000000e-09     3     4     5     5
-1.4570400000e-05     3     5     1     1
-1.2740000000e-06     3     5     1     2
-1.2468213500e-02     3     5     1     3
 1.9000000000e-09     3     5     1     4
-1.7336000000e-06     3     5     2     1
-1.1301000000e-05     3     5     2     2
 3.8510978000e-03     3     5     2     3
 1.2000000000e-09     3     5     2     4
 1.0000000000e-09     3     5     4     1
 3.0000000000e-10     3     5     4     2
 1.2532900000e-05     3     5     4     3
-9.7678000000e-06     3     5     4     4
 1.2727600000e-05     3     5     5     1
-1.5819000000e-06     3     5     5     2
-4.0689742200e-01     3     5     5     3
-6.4000000000e-09     3     5     5     4
-5.8120000000e-06     4     1     1     2
-1.0700000000e-08     4     1     1     3
-3.6201258590e-01     4     1     1     4
 1.8470300000e-05     4     1     1     5
-1.4028700000e-05     4     1     2     2
-1.1000000000e-09     4     1     2     3
-1.0055103140e-01     4     1     2     4
 2.3734000000e-06     4     1     2     5
-2.0000000000e-09     4     1     3     2
-1.2689100000e-05     4     1     3     3
 1.0361700000e-05     4     1     3     4
 1.0000000000e-09     4     1     3     5
 7.5390000000e-07     4     1     5     2
 1.9000000000e-09     4     1     5     3
-1.2468171900e-02     4     1     5     4
-1.5442000000e-05     4     1     5     5
 5.8120000000e-06     4     2     1     1
 9.0000000000e-10     4     2     1     3
-1.0055103140e-01     4     2     1     4
 1.6195000000e-06     4     2     1     5
 1.4028700000e-05     4     2     2     1
-7.2000000000e-09     4     2     2     3
-3.6866166280e-01     4     2     2     4
 1.4415900000e-05     4     2     2     5
 2.0000000000e-09     4     2     3     1
 3.0153000000e-06     4     2     3     3
-2.2644000000e-06     4     2     3     4
 3.0000000000e-10     4     2     3     5
-7.5390000000e-07     4     2     5     1
 1.2000000000e-09     4     2     5     3
 3.8511427000e-03     4     2     5     4
 2.2740000000e-06     4     2     5     5
 1.0700000000e-08     4     3     1     1
-9.0000000000e-10     4     3     1     2
 1.0361700000e-05     4     3     1     4
-9.0000000000e-10     4     3     1     5
 1.1000000000e-09     4     3     2     1
 7.2000000000e-09     4     3     2     2
-2.2644000000e-06     4     3     2     4
-9.0000000000e-10     4     3     2     5
 1.2689100000e-05     4     3     3     1
-3.0153000000e-06     4     3     3     2
-3.8577827040e-01     4     3     3     4
 1.2532900000e-05     4     3     3     5
-1.9000000000e-09     4     3     5     1
-1.2000000000e-09     4     3     5     2
 9.7678000000e-06     4     3     5     4
 6.4000000000e-09     4     3     5     5
 3.6201258590e-01     4     4     1     1
 1.0055103140e-01     4     4     1     2
-1.0361700000e-05     4     4     1     3
 1.2468171900e-02     4     4     1     5
 1.0055103140e-01     4     4     2     1
 3.6866166280e-01     4     4     2     2
 2.2644000000e-06     4     4     2     3
-3.8511427000e-03     4     4     2     5
-1.0361700000e-05     4     4     3     1
 2.2644000000e-06     4     4     3     2
 3.8577827040e-01     4     4     3     3
-9.7678000000e-06     4     4     3     5
 1.2468171900e-02     4     4     5     1
-3.8511427000e-03     4     4     5     2
-9.7678000000e-06     4     4     5     3
 4.0689804940e-01     4     4     5     5
-1.8470300000e-05     4     5     1     1
-1.6195000000e-06     4     5     1     2
 9.0000000000e-10     4     5     1     3
-1.2468171900e-02     4     5     1     4
-2.3734000000e-06     4     5     2     1
-1.4415900000e-05     4     5     2     2
 9.0000000000e-10     4     5     2     3
 3.8511427000e-03     4     5     2     4
-1.0000000000e-09     4     5     3     1
-3.0000000000e-10     4     5     3     2
-1.2532900000e-05     4     5     3     3
 9.7678000000e-06     4     5     3     4
 1.5442000000e-05     4     5     5     1
-2.2740000000e-06     4     5     5     2
-6.4000000000e-09     4     5     5     3
-4.0689804940e-01     4     5     5     4
 6.7109931000e-03     5     1     1     2
 1.4570400000e-05     5     1     1     3
 1.8470300000e-05     5     1     1     4
-3.8904052580e-01     5     1     1     5
 1.3847592900e-02     5     1     2     2
 1.2740000000e-06     5     1     2     3
 1.6195000000e-06     5     1     2     4
-1.0618202430e-01     5     1     2     5
-4.5960000000e-07     5     1     3     2
 1.2468213500e-02     5     1     3     3
-9.0000000000e-10     5     1     3     4
 1.2727600000e-05     5     1     3     5
-7.5390000000e-07     5     1     4     2
-1.9000000000e-09     5     1     4     3
 1.2468171900e-02     5     1     4     4
 1.5442000000e-05     5     1     4     5
-6.7109931000e-03     5     2     1     1
 1.7336000000e-06     5     2     1     3
 2.3734000000e-06     5     2     1     4
-1.0618202430e-01     5     2     1     5
-1.3847592900e-02     5     2     2     1
 1.1301000000e-05     5     2     2     3
 1.4415900000e-05     5     2     2     4
-3.9246741170e-01     5     2     2     5
 4.5960000000e-07     5     2     3     1
-3.8510978000e-03     5     2     3     3
-9.0000000000e-10     5     2     3     4
-1.5819000000e-06     5     2     3     5
 7.5390000000e-07     5     2     4     1
-1.2000000000e-09     5     2     4     3
-3.8511427000e-03     5     2     4     4
-2.2740000000e-06     5     2     4     5
-1.4570400000e-05     5     3     1     1
-1.7336000000e-06     5     3     1     2
 1.0000000000e-09     5     3     1     4
 1.2727600000e-05     5     3     1     5
-1.2740000000e-06     5     3     2     1
-1.1301000000e-05     5     3     2     2
 3.0000000000e-10     5     3     2     4
-1.5819000000e-06     5     3     2     5
-1.2468213500e-02     5     3     3     1
 3.8510978000e-03     5     3     3     2
 1.2532900000e-05     5     3     3     4
-4.0689742200e-01     5     3     3     5
 1.9000000000e-09     5     3     4     1
 1.2000000000e-09     5     3     4     2
-9.7678000000e-06     5     3     4     4
-6.4000000000e-09     5     3     4     5
-1.8470300000e-05     5     4     1     1
-2.3734000000e-06     5     4     1     2
-1.0000000000e-09     5     4     1     3
 1.5442000000e-05     5     4     1     5
-1.6195000000e-06     5     4     2     1
-1.4415900000e-05     5     4     2     2
-3.0000000000e-10     5     4     2     3
-2.2740000000e-06     5     4     2     5
 9.0000000000e-10     5     4     3     1
 9.0000000000e-10     5     4     3     2
-1.2532900000e-05     5     4     3     3
-6.4000000000e-09     5     4     3     5
-1.2468171900e-02     5     4     4     1
 3.8511427000e-03     5     4     4     2
 9.7678000000e-06     5     4     4     3
-4.0689804940e-01     5     4     4     5
 3.8904052580e-01     5     5     1     1
 1.0618202430e-01     5     5     1     2
-1.2727600000e-05     5     5     1     3
-1.5442000000e-05     5     5     1     4
 1.0618202430e-01     5     5     2     1
 3.9246741170e-01     5     5     2     2
 1.5819000000e-06     5     5     2     3
 2.2740000000e-06     5     5     2     4
-1.2727600000e-05     5     5     3     1
 1.5819000000e-06     5     5     3     2
 4.0689742200e-01     5     5     3     3
 6.4000000000e-09     5     5     3     4
-1.5442000000e-05     5     5     4     1
 2.2740000000e-06     5     5     4     2
 6.4000000000e-09     5     5     4     3
 4.0689804940e-01     5     5     4     4
0.0 0 0 0 0
 3.2911002940e-01     1     1     2     2
 4.5194000000e-06     1     1     2     3
 5.8120000000e-06     1     1     2     4
-6.7109931000e-03     1     1     2     5
 4.5194000000e-06     1     1     3     2
 3.6201202230e-01     1     1     3     3
 1.0700000000e-08     1     1     3     4
-1.4570400000e-05     1     1     3     5
 5.8120000000e-06     1     1     4     2
 1.0700000000e-08     1     1     4     3
 3.6201258590e-01     1     1     4     4
-1.8470300000e-05     1     1     4     5
-6.7109931000e-03     1     1     5     2
-1.4570400000e-05     1     1     5     3
-1.8470300000e-05     1     1     5     4
 3.8904052580e-01     1     1     5     5
-3.2911002940e-01     1     2     2     1
 1.1320400000e-05     1     2     2     3
 1.4028700000e-05     1     2     2     4
-1.3847592900e-02     1     2     2     5
-4.5194000000e-06     1     2     3     1
 1.0055082420e-01     1     2     3     3
 1.1000000000e-09     1     2     3     4
-1.2740000000e-06     1     2     3     5
-5.8120000000e-06     1     2     4     1
-9.0000000000e-10     1     2     4     3
 1.0055103140e-01     1     2     4     4
-1.6195000000e-06     1     2     4     5
 6.7109931000e-03     1     2     5     1
-1.7336000000e-06     1     2     5     3
-2.3734000000e-06     1     2     5     4
 1.0618202430e-01     1     2     5     5
-4.5194000000e-06     1     3     2     1
-1.1320400000e-05     1     3     2     2
 2.0000000000e-09     1     3     2     4
 4.5960000000e-07     1     3     2     5
-3.6201202230e-01     1     3     3     1
-1.0055082420e-01     1     3     3     2
 1.2689100000e-05     1     3     3     4
-1.2468213500e-02     1     3     3     5
-1.0700000000e-08     1     3     4     1
 9.0000000000e-10     1     3     4     2
-1.0361700000e-05     1     3     4     4
 9.0000000000e-10     1     3     4     5
 1.4570400000e-05     1     3     5     1
 1.7336000000e-06     1     3     5     2
-1.0000000000e-09     1     3     5     4
-1.2727600000e-05     1     3     5     5
-5.8120000000e-06     1     4     2     1
-1.4028700000e-05     1     4     2     2
-2.0000000000e-09     1     4     2     3
 7.5390000000e-07     1     4     2     5
-1.0700000000e-08     1     4     3     1
-1.1000000000e-09     1     4     3     2
-1.2689100000e-05     1     4     3     3
 1.9000000000e-09     1     4     3     5
-3.6201258590e-01     1     4     4     1
-1.0055103140e-01     1     4     4     2
 1.0361700000e-05     1     4     4     3
-1.2468171900e-02     1     4     4     5
 1.8470300000e-05     1     4     5     1
 2.3734000000e-06     1     4     5     2
 1.0000000000e-09     1     4     5     3
-1.5442000000e-05     1     4     5     5
 6.7109931000e-03     1     5     2     1
 1.3847592900e-02     1     5     2     2
-4.5960000000e-07     1     5     2     3
-7.5390000000e-07     1     5     2     4
 1.4570400000e-05     1     5     3     1
 1.2740000000e-06     1     5     3     2
 1.2468213500e-02     1     5     3     3
-1.9000000000e-09     1     5     3     4
 1.8470300000e-05     1     5     4     1
 1.6195000000e-06     1     5     4     2
-9.0000000000e-10     1     5     4     3
 1.2468171900e-02     1     5     4     4
-3.8904052580e-01     1     5     5     1
-1.0618202430e-01     1     5     5     2
 1.2727600000e-05     1     5     5     3
 1.5442000000e-05     1     5     5     4
-3.2911002940e-01     2     1     1     2
-4.5194000000e-06     2     1     1     3
-5.8120000000e-06     2     1     1     4
 6.7109931000e-03     2     1     1     5
 1.1320400000e-05     2     1     3     2
 1.0055082420e-01     2     1     3     3
-9.0000000000e-10     2     1     3     4
-1.7336000000e-06     2     1     3     5
 1.4028700000e-05     2     1     4     2
 1.1000000000e-09     2     1     4     3
 1.0055103140e-01     2     1     4     4
-2.3734000000e-06     2     1     4     5
-1.3847592900e-02     2     1     5     2
-1.2740000000e-06     2     1     5     3
-1.6195000000e-06     2     1     5     4
 1.0618202430e-01     2     1     5     5
 3.2911002940e-01     2     2     1     1
-1.1320400000e-05     2     2     1     3
-1.4028700000e-05     2     2     1     4
 1.3847592900e-02     2     2     1     5
-1.1320400000e-05     2     2     3     1
 3.6866103290e-01     2     2     3     3
 7.2000000000e-09     2     2     3     4
-1.1301000000e-05     2     2     3     5
-1.4028700000e-05     2     2     4     1
 7.2000000000e-09     2     2     4     3
 3.6866166280e-01     2     2     4     4
-1.4415900000e-05     2     2     4     5
 1.3847592900e-02     2     2     5     1
-1.1301000000e-05     2     2     5     3
-1.4415900000e-05     2     2     5     4
 3.9246741170e-01     2     2     5     5
 4.5194000000e-06     2     3     1     1
 1.1320400000e-05     2     3     1     2
-2.0000000000e-09     2     3     1     4
-4.5960000000e-07     2     3     1     5
-1.0055082420e-01     2     3     3     1
-3.6866103290e-01     2     3     3     2
-3.0153000000e-06     2     3     3     4
 3.8510978000e-03     2     3     3     5
-1.1000000000e-09     2     3     4     1
-7.2000000000e-09     2     3     4     2
 2.2644000000e-06     2     3     4     4
 9.0000000000e-10     2     3     4     5
 1.2740000000e-06     2     3     5     1
 1.1301000000e-05     2     3     5     2
-3.0000000000e-10     2     3     5     4
 1.5819000000e-06     2     3     5     5
 5.8120000000e-06     2     4     1     1
 1.4028700000e-05     2     4     1     2
 2.0000000000e-09     2     4     1     3
-7.5390000000e-07     2     4     1     5
 9.0000000000e-10     2     4     3     1
-7.2000000000e-09     2     4     3     2
 3.0153000000e-06     2     4     3     3
 1.2000000000e-09     2     4     3     5
-1.0055103140e-01     2     4     4     1
-3.6866166280e-01     2     4     4     2
-2.2644000000e-06     2     4     4     3
 3.8511427000e-03     2     4     4     5
 1.6195000000e-06     2     4     5     1
 1.4415900000e-05     2     4     5     2
 3.0000000000e-10     2     4     5     3
 2.2740000000e-06     2     4     5     5
-6.7109931000e-03     2     5     1     1
-1.3847592900e-02     2     5     1     2
 4.5960000000e-07     2     5     1     3
 7.5390000000e-07     2     5     1     4
 1.7336000000e-06     2     5     3     1
 1.1301000000e-05     2     5     3     2
-3.8510978000e-03     2     5     3     3
-1.2000000000e-09     2     5     3     4
 2.3734000000e-06     2     5     4     1
 1.4415900000e-05     2     5     4     2
-9.0000000000e-10     2     5     4     3
-3.8511427000e-03     2     5     4     4
-1.0618202430e-01     2     5     5     1
-3.9246741170e-01     2     5     5     2
-1.5819000000e-06     2     5     5     3
-2.2740000000e-06     2     5     5     4
-4.5194000000e-06     3     1     1     2
-3.6201202230e-01     3     1     1     3
-1.0700000000e-08     3     1     1     4
 1.4570400000e-05     3     1     1     5
-1.1320400000e-05     3     1     2     2
-1.0055082420e-01     3     1     2     3
 9.0000000000e-10     3     1     2     4
 1.7336000000e-06     3     1     2     5
 2.0000000000e-09     3     1     4     2
 1.2689100000e-05     3     1     4     3
-1.0361700000e-05     3     1     4     4
-1.0000000000e-09     3     1     4     5
 4.5960000000e-07     3     1     5     2
-1.2468213500e-02     3     1     5     3
 9.0000000000e-10     3     1     5     4
-1.2727600000e-05     3     1     5     5
 4.5194000000e-06     3     2     1     1
-1.0055082420e-01     3     2     1     3
-1.1000000000e-09     3     2     1     4
 1.2740000000e-06     3     2     1     5
 1.1320400000e-05     3     2     2     1
-3.6866103290e-01     3     2     2     3
-7.2000000000e-09     3     2     2     4
 1.1301000000e-05     3     2     2     5
-2.0000000000e-09     3     2     4     1
-3.0153000000e-06     3     2     4     3
 2.2644000000e-06     3     2     4     4
-3.0000000000e-10     3     2     4     5
-4.5960000000e-07     3     2     5     1
 3.8510978000e-03     3     2     5     3
 9.0000000000e-10     3     2     5     4
 1.5819000000e-06     3     2     5     5
 3.6201202230e-01     3     3     1     1
 1.0055082420e-01     3     3     1     2
-1.2689100000e-05     3     3     1     4
 1.2468213500e-02     3     3     1     5
 1.0055082420e-01     3     3     2     1
 3.6866103290e-01     3     3     2     2
 3.0153000000e-06     3     3     2     4
-3.8510978000e-03     3     3     2     5
-1.2689100000e-05     3     3     4     1
 3.0153000000e-06     3     3     4     2
 3.8577827040e-01     3     3     4     4
-1.2532900000e-05     3     3     4     5
 1.2468213500e-02     3     3     5     1
-3.8510978000e-03     3     3     5     2
-1.2532900000e-05     3     3     5     4
 4.0689742200e-01     3     3     5     5
 1.0700000000e-08     3     4     1     1
 1.1000000000e-09     3     4     1     2
 1.2689100000e-05     3     4     1     3
-1.9000000000e-09     3     4     1     5
-9.0000000000e-10     3     4     2     1
 7.2000000000e-09     3     4     2     2
-3.0153000000e-06     3     4     2     3
-1.2000000000e-09     3     4     2     5
 1.0361700000e-05     3     4     4     1
-2.2644000000e-06     3     4     4     2
-3.8577827040e-01     3     4     4     3
 9.7678000000e-06     3     4     4     5
-9.0000000000e-10     3     4     5     1
-9.0000000000e-10     3     4     5     2
 1.2532900000e-05     3     4     5     3
 6.4000000000e-09     3     4     5     5
-1.4570400000e-05     3     5     1     1
-1.2740000000e-06     3     5     1     2
-1.2468213500e-02     3     5     1     3
 1.9000000000e-09     3     5     1     4
-1.7336000000e-06     3     5     2     1
-1.1301000000e-05     3     5     2     2
 3.8510978000e-03     3     5     2     3
 1.2000000000e-09     3     5     2     4
 1.0000000000e-09     3     5     4     1
 3.0000000000e-10     3     5     4     2
 1.2532900000e-05     3     5     4     3
-9.7678000000e-06     3     5     4     4
 1.2727600000e-05     3     5     5     1
-1.5819000000e-06     3     5     5     2
-4.0689742200e-01     3     5     5     3
-6.4000000000e-09     3     5     5     4
-5.8120000000e-06     4     1     1     2
-1.0700000000e-08     4     1     1     3
-3.6201258590e-01     4     1     1     4
 1.8470300000e-05     4     1     1     5
-1.4028700000e-05     4     1     2     2
-1.1000000000e-09     4     1     2     3
-1.0055103140e-01     4     1     2     4
 2.3734000000e-06     4     1     2     5
-2.0000000000e-09     4     1     3     2
-1.2689100000e-05     4     1     3     3
 1.0361700000e-05     4     1     3     4
 1.0000000000e-09     4     1     3     5
 7.5390000000e-07     4     1     5     2
 1.9000000000e-09     4     1     5     3
-1.2468171900e-02     4     1     5     4
-1.5442000000e-05     4     1     5     5
 5.8120000000e-06     4     2     1     1
 9.0000000000e-10     4     2     1     3
-1.0055103140e-01     4     2     1     4
 1.6195000000e-06     4     2     1     5
 1.4028700000e-05     4     2     2     1
-7.2000000000e-09     4     2     2     3
-3.6866166280e-01     4     2     2     4
 1.4415900000e-05     4     2     2     5
 2.0000000000e-09     4     2     3     1
 3.0153000000e-06     4     2     3     3
-2.2644000000e-06     4     2     3     4
 3.0000000000e-10     4     2     3     5
-7.5390000000e-07     4     2     5     1
 1.2000000000e-09     4     2     5     3
 3.8511427000e-03     4     2     5     4
 2.2740000000e-06     4     2     5     5
 1.0700000000e-08     4     3     1     1
-9.0000000000e-10     4     3     1     2
 1.0361700000e-05     4     3     1     4
-9.0000000000e-10     4     3     1     5
 1.1000000000e-09     4     3     2     1
 7.2000000000e-09     4     3     2     2
-2.2644000000e-06     4     3     2     4
-9.0000000000e-10     4     3     2     5
 1.2689100000e-05     4     3     3     1
-3.0153000000e-06     4     3     3     2
-3.8577827040e-01     4     3     3     4
 1.2532900000e-05     4     3     3     5
-1.9000000000e-09     4     3     5     1
-1.2000000000e-09     4     3     5     2
 9.7678000000e-06     4     3     5     4
 6.4000000000e-09     4     3     5     5
 3.6201258590e-01     4     4     1     1
 1.0055103140e-01     4     4     1     2
-1.0361700000e-05     4     4     1     3
 1.2468171900e-02     4     4     1     5
 1.0055103140e-01     4     4     2     1
 3.6866166280e-01     4     4     2     2
 2.2644000000e-06     4     4     2     3
-3.8511427000e-03     4     4     2     5
-1.0361700000e-05     4     4     3     1
 2.2644000000e-06     4     4     3     2
 3.8577827040e-01     4     4     3     3
-9.7678000000e-06     4     4     3     5
 1.2468171900e-02     4     4     5     1
-3.8511427000e-03     4     4     5     2
-9.7678000000e-06     4     4     5     3
 4.0689804940e-01     4     4     5     5
-1.8470300000e-05     4     5     1     1
-1.6195000000e-06     4     5     1     2
 9.0000000000e-10     4     5     1     3
-1.2468171900e-02     4     5     1     4
-2.3734000000e-06     4     5     2     1
-1.4415900000e-05     4     5     2     2
 9.0000000000e-10     4     5     2     3
 3.8511427000e-03     4     5     2     4