&FCI NORB=  5,NELEC=  2,MS2=0,
 ORBSYM=1,1,1,1,1
 ISYM=1,
&END
 3.1518589500e-01     1     1     2     2
-8.2975700000e-05     1     1     2     3
 2.3978560000e-04     1     1     2     4
-1.2224830700e-02     1     1     2     5
-8.2975700000e-05     1     1     3     2
 3.4364127320e-01     1     1     3     3
-1.3574000000e-06     1     1     3     4
 6.7153900000e-05     1     1     3     5
 2.3978560000e-04     1     1     4     2
-1.3574000000e-06     1     1     4     3
 3.4364140110e-01     1     1     4     4
-1.8856920000e-04     1     1     4     5
-1.2224830700e-02     1     1     5     2
 6.7153900000e-05     1     1     5     3
-1.8856920000e-04     1     1     5     4
 3.5549322850e-01     1     1     5     5
-3.1518589500e-01     1     2     2     1
-2.3797840000e-04     1     2     2     3
 6.8498390000e-04     1     2     2     4
-3.4518004400e-02     1     2     2     5
 8.2975700000e-05     1     2     3     1
 8.9654797000e-02     1     2     3     3
-4.1360000000e-07     1     2     3     4
 1.7855600000e-05     1     2     3     5
-2.3978560000e-04     1     2     4     1
-4.1750000000e-07     1     2     4     3
 8.9654025300e-02     1     2     4     4
-4.8436100000e-05     1     2     4     5
 1.2224830700e-02     1     2     5     1
 1.9411600000e-05     1     2     5     3
-5.4844800000e-05     1     2     5     4
 9.3227213000e-02     1     2     5     5
 8.2975700000e-05     1     3     2     1
 2.3797840000e-04     1     3     2     2
 3.9000000000e-09     1     3     2     4
-1.5560000000e-06     1     3     2     5
-3.4364127320e-01     1     3     3     1
-8.9654797000e-02     1     3     3     2
 6.6672790000e-04     1     3     3     4
-3.3770753800e-02     1     3     3     5
 1.3574000000e-06     1     3     4     1
 4.1750000000e-07     1     3     4     2
 2.3188640000e-04     1     3     4     4
-7.2400000000e-08     1     3     4     5
-6.7153900000e-05     1     3     5     1
-1.9411600000e-05     1     3     5     2
-7.0000000000e-09     1     3     5     4
 2.3795280000e-04     1     3     5     5
-2.3978560000e-04     1     4     2     1
-6.8498390000e-04     1     4     2     2
-3.9000000000e-09     1     4     2     3
 6.4087000000e-06     1     4     2     5
 1.3574000000e-06     1     4     3     1
 4.1360000000e-07     1     4     3     2
-6.6672790000e-04     1     4     3     3
-6.5400000000e-08     1     4     3     5
-3.4364140110e-01     1     4     4     1
-8.9654025300e-02     1     4     4     2
-2.3188640000e-04     1     4     4     3
-3.3771718800e-02     1     4     4     5
 1.8856920000e-04     1     4     5     1
 5.4844800000e-05     1     4     5     2
 7.0000000000e-09     1     4     5     3
-6.8401530000e-04     1     4     5     5
 1.2224830700e-02     1     5     2     1
 3.4518004400e-02     1     5     2     2
 1.5560000000e-06     1     5     2     3
-6.4087000000e-06     1     5     2     4
-6.7153900000e-05     1     5     3     1
-1.7855600000e-05     1     5     3     2
 3.3770753800e-02     1     5     3     3
 6.5400000000e-08     1     5     3     4
 1.8856920000e-04     1     5     4     1
 4.8436100000e-05     1     5     4     2
 7.2400000000e-08     1     5     4     3
 3.3771718800e-02     1     5     4     4
-3.5549322850e-01     1     5     5     1
-9.3227213000e-02     1     5     5     2
-2.3795280000e-04     1     5     5     3
 6.8401530000e-04     1     5     5     4
-3.1518589500e-01     2     1     1     2
 8.2975700000e-05     2     1     1     3
-2.3978560000e-04     2     1     1     4
 1.2224830700e-02     2     1     1     5
-2.3797840000e-04     2     1     3     2
 8.9654797000e-02     2     1     3     3
-4.1750000000e-07     2     1     3     4
 1.9411600000e-05     2     1     3     5
 6.8498390000e-04     2     1     4     2
-4.1360000000e-07     2     1     4     3
 8.9654025300e-02     2     1     4     4
-5.4844800000e-05     2     1     4     5
-3.4518004400e-02     2     1     5     2
 1.7855600000e-05     2     1     5     3
-4.8436100000e-05     2     1     5     4
 9.3227213000e-02     2     1     5     5
 3.1518589500e-01     2     2     1     1
 2.3797840000e-04     2     2     1     3
-6.8498390000e-04     2     2     1     4
 3.4518004400e-02     2     2     1     5
 2.3797840000e-04     2     2     3     1
 3.5551820370e-01     2     2     3     3
-1.5128000000e-06     2     2     3     4
 7.3699800000e-05     2     2     3     5
-6.8498390000e-04     2     2     4     1
-1.5128000000e-06     2     2     4     3
 3.5551799810e-01     2     2     4     4
-2.0671480000e-04     2     2     4     5
 3.4518004400e-02     2     2     5     1
 7.3699800000e-05     2     2     5     3
-2.0671480000e-04     2     2     5     4
 3.6858809500e-01     2     2     5     5
-8.2975700000e-05     2     3     1     1
-2.3797840000e-04     2     3     1     2
-3.9000000000e-09     2     3     1     4
 1.5560000000e-06     2     3     1     5
-8.9654797000e-02     2     3     3     1
-3.5551820370e-01     2     3     3     2
-1.7819480000e-04     2     3     3     4
 9.1078860000e-03     2     3     3     5
 4.1360000000e-07     2     3     4     1
 1.5128000000e-06     2     3     4     2
-6.1569200000e-05     2     3     4     4
-3.6200000000e-08     2     3     4     5
-1.7855600000e-05     2     3     5     1
-7.3699800000e-05     2     3     5     2
-2.3000000000e-09     2     3     5     4
-6.1366200000e-05     2     3     5     5
 2.3978560000e-04     2     4     1     1
 6.8498390000e-04     2     4     1     2
 3.9000000000e-09     2     4     1     3
-6.4087000000e-06     2     4     1     5
 4.1750000000e-07     2     4     3     1
 1.5128000000e-06     2     4     3     2
 1.7819480000e-04     2     4     3     3
-3.3900000000e-08     2     4     3     5
-8.9654025300e-02     2     4     4     1
-3.5551799810e-01     2     4     4     2
 6.1569200000e-05     2     4     4     3
 9.1075042000e-03     2     4     4     5
 4.8436100000e-05     2     4     5     1
 2.0671480000e-04     2     4     5     2
 2.3000000000e-09     2     4     5     3
 1.7745580000e-04     2     4     5     5
-1.2224830700e-02     2     5     1     1
-3.4518004400e-02     2     5     1     2
-1.5560000000e-06     2     5     1     3
 6.4087000000e-06     2     5     1     4
-1.9411600000e-05     2     5     3     1
-7.3699800000e-05     2     5     3     2
-9.1078860000e-03     2     5     3     3
 3.3900000000e-08     2     5     3     4
 5.4844800000e-05     2     5     4     1
 2.0671480000e-04     2     5     4     2
 3.6200000000e-08     2     5     4     3
-9.1075042000e-03     2     5     4     4
-9.3227213000e-02     2     5     5     1
-3.6858809500e-01     2     5     5     2
 6.1366200000e-05     2     5     5     3
-1.7745580000e-04     2     5     5     4
 8.2975700000e-05     3     1     1     2
-3.4364127320e-01     3     1     1     3
 1.3574000000e-06     3     1     1     4
-6.7153900000e-05     3     1     1     5
 2.3797840000e-04     3     1     2     2
-8.9654797000e-02     3     1     2     3
 4.1750000000e-07     3     1     2     4
-1.9411600000e-05     3     1     2     5
 3.9000000000e-09     3     1     4     2
 6.6672790000e-04     3     1     4     3
 2.3188640000e-04     3     1     4     4
-7.0000000000e-09     3     1     4     5
-1.5560000000e-06     3     1     5     2
-3.3770753800e-02     3     1     5     3
-7.2400000000e-08     3     1     5     4
 2.3795280000e-04     3     1     5     5
-8.2975700000e-05     3     2     1     1
-8.9654797000e-02     3     2     1     3
 4.1360000000e-07     3     2     1     4
-1.7855600000e-05     3     2     1     5
-2.3797840000e-04     3     2     2     1
-3.5551820370e-01     3     2     2     3
 1.5128000000e-06     3     2     2     4
-7.3699800000e-05     3     2     2     5
-3.9000000000e-09     3     2     4     1
-1.7819480000e-04     3     2     4     3
-6.1569200000e-05     3     2     4     4
-2.3000000000e-09     3     2     4     5
 1.5560000000e-06     3     2     5     1
 9.1078860000e-03     3     2     5     3
-3.6200000000e-08     3     2     5     4
-6.1366200000e-05     3     2     5     5
 3.4364127320e-01     3     3     1     1
 8.9654797000e-02     3     3     1     2
-6.6672790000e-04     3     3     1     4
 3.3770753800e-02     3     3     1     5
 8.9654797000e-02     3     3     2     1
 3.5551820370e-01     3     3     2     2
 1.7819480000e-04     3     3     2     4
-9.1078860000e-03     3     3     2     5
-6.6672790000e-04     3     3     4     1
 1.7819480000e-04     3     3     4     2
 3.6668828770e-01     3     3     4     4
-1.7305200000e-04     3     3     4     5
 3.3770753800e-02     3     3     5     1
-9.1078860000e-03     3     3     5     2
-1.7305200000e-04     3     3     5     4
 3.7771285570e-01     3     3     5     5
-1.3574000000e-06     3     4     1     1
-4.1360000000e-07     3     4     1     2
 6.6672790000e-04     3     4     1     3
 6.5400000000e-08     3     4     1     5
-4.1750000000e-07     3     4     2     1
-1.5128000000e-06     3     4     2     2
-1.7819480000e-04     3     4     2     3
 3.3900000000e-08     3     4     2     5
-2.3188640000e-04     3     4     4     1
 6.1569200000e-05     3     4     4     2
-3.6668828770e-01     3     4     4     3
-6.1665400000e-05     3     4     4     5
 7.2400000000e-08     3     4     5     1
 3.6200000000e-08     3     4     5     2
 1.7305200000e-04     3     4     5     3
-1.2907000000e-06     3     4     5     5
 6.7153900000e-05     3     5     1     1
 1.7855600000e-05     3     5     1     2
-3.3770753800e-02     3     5     1     3
-6.5400000000e-08     3     5     1     4
 1.9411600000e-05     3     5     2     1
 7.3699800000e-05     3     5     2     2
 9.1078860000e-03     3     5     2     3
-3.3900000000e-08     3     5     2     4
 7.0000000000e-09     3     5     4     1
 2.3000000000e-09     3     5     4     2
 1.7305200000e-04     3     5     4     3
 6.1665400000e-05     3     5     4     4
-2.3795280000e-04     3     5     5     1
 6.1366200000e-05     3     5     5     2
-3.7771285570e-01     3     5     5     3
 1.2907000000e-06     3     5     5     4
-2.3978560000e-04     4     1     1     2
 1.3574000000e-06     4     1     1     3
-3.4364140110e-01     4     1     1     4
 1.8856920000e-04     4     1     1     5
-6.8498390000e-04     4     1     2     2
 4.1360000000e-07     4     1     2     3
-8.9654025300e-02     4     1     2     4
 5.4844800000e-05     4     1     2     5
-3.9000000000e-09     4     1     3     2
-6.6672790000e-04     4     1     3     3
-2.3188640000e-04     4     1     3     4
 7.0000000000e-09     4     1     3     5
 6.4087000000e-06     4     1     5     2
-6.5400000000e-08     4     1     5     3
-3.3771718800e-02     4     1     5     4
-6.8401530000e-04     4     1     5     5
 2.3978560000e-04     4     2     1     1
 4.1750000000e-07     4     2     1     3
-8.9654025300e-02     4     2     1     4
 4.8436100000e-05     4     2     1     5
 6.8498390000e-04     4     2     2     1
 1.5128000000e-06     4     2     2     3
-3.5551799810e-01     4     2     2     4
 2.0671480000e-04     4     2     2     5
 3.9000000000e-09     4     2     3     1
 1.7819480000e-04     4     2     3     3
 6.1569200000e-05     4     2     3     4
 2.3000000000e-09     4     2     3     5
-6.4087000000e-06     4     2     5     1
-3.3900000000e-08     4     2     5     3
 9.1075042000e-03     4     2     5     4
 1.7745580000e-04     4     2     5     5
-1.3574000000e-06     4     3     1     1
-4.1750000000e-07     4     3     1     2
-2.3188640000e-04     4     3     1     4
 7.2400000000e-08     4     3     1     5
-4.1360000000e-07     4     3     2     1
-1.5128000000e-06     4     3     2     2
 6.1569200000e-05     4     3     2     4
 3.6200000000e-08     4     3     2     5
 6.6672790000e-04     4     3     3     1
-1.7819480000e-04     4     3     3     2
-3.6668828770e-01     4     3     3     4
 1.7305200000e-04     4     3     3     5
 6.5400000000e-08     4     3     5     1
 3.3900000000e-08     4     3     5     2
-6.1665400000e-05     4     3     5     4
-1.2907000000e-06     4     3     5     5
 3.4364140110e-01     4     4     1     1
 8.9654025300e-02     4     4     1     2
 2.3188640000e-04     4     4     1     3
 3.3771718800e-02     4     4     1     5
 8.9654025300e-02     4     4     2     1
 3.5551799810e-01     4     4     2     2
-6.1569200000e-05     4     4     2     3
-9.1075042000e-03     4     4     2     5
 2.3188640000e-04     4     4     3     1
-6.1569200000e-05     4     4     3     2
 3.6668828770e-01     4     4     3     3
 6.1665400000e-05     4     4     3     5
 3.3771718800e-02     4     4     5     1
-9.1075042000e-03     4     4     5     2
 6.1665400000e-05     4     4     5     3
 3.7771288860e-01     4     4     5     5
-1.8856920000e-04     4     5     1     1
-4.8436100000e-05     4     5     1     2
-7.2400000000e-08     4     5     1     3
-3.3771718800e-02     4     5     1     4
-5.4844800000e-05     4     5     2     1
-2.0671480000e-04     4     5     2     2
-3.6200000000e-08     4     5     2     3
 9.1075042000e-03     4     5     2     4
-7.0000000000e-09     4     5     3     1
-2.3000000000e-09     4     5     3     2
-1.7305200000e-04     4     5     3     3
-6.1665400000e-05     4     5     3     4
 6.8401530000e-04     4     5     5     1
-1.7745580000e-04     4     5     5     2
 1.2907000000e-06     4     5     5     3
-3.7771288860e-01     4     5     5     4
 1.2224830700e-02     5     1     1     2
-6.7153900000e-05     5     1     1     3
 1.8856920000e-04     5     1     1     4
-3.5549322850e-01     5     1     1     5
 3.4518004400e-02     5     1     2     2
-1.7855600000e-05     5     1     2     3
 4.8436100000e-05     5     1     2     4
-9.3227213000e-02     5     1     2     5
 1.5560000000e-06     5     1     3     2
 3.3770753800e-02     5     1     3     3
 7.2400000000e-08     5     1     3     4
-2.3795280000e-04     5     1     3     5
-6.4087000000e-06     5     1     4     2
 6.5400000000e-08     5     1     4     3
 3.3771718800e-02     5     1     4     4
 6.8401530000e-04     5     1     4     5
-1.2224830700e-02     5     2     1     1
-1.9411600000e-05     5     2     1     3
 5.4844800000e-05     5     2     1     4
-9.3227213000e-02     5     2     1     5
-3.4518004400e-02     5     2     2     1
-7.3699800000e-05     5     2     2     3
 2.0671480000e-04     5     2     2     4
-3.6858809500e-01     5     2     2     5
-1.5560000000e-06     5     2     3     1
-9.1078860000e-03     5     2     3     3
 3.6200000000e-08     5     2     3     4
 6.1366200000e-05     5     2     3     5
 6.4087000000e-06     5     2     4     1
 3.3900000000e-08     5     2     4     3
-9.1075042000e-03     5     2     4     4
-1.7745580000e-04     5     2     4     5
 6.7153900000e-05     5     3     1     1
 1.9411600000e-05     5     3     1     2
 7.0000000000e-09     5     3     1     4
-2.3795280000e-04     5     3     1     5
 1.7855600000e-05     5     3     2     1
 7.3699800000e-05     5     3     2     2
 2.3000000000e-09     5     3     2     4
 6.1366200000e-05     5     3     2     5
-3.3770753800e-02     5     3     3     1
 9.1078860000e-03     5     3     3     2
 1.7305200000e-04     5     3     3     4
-3.7771285570e-01     5     3     3     5
-6.5400000000e-08     5     3     4     1
-3.3900000000e-08     5     3     4     2
 6.1665400000e-05     5     3     4     4
 1.2907000000e-06     5     3     4     5
-1.8856920000e-04     5     4     1     1
-5.4844800000e-05     5     4     1     2
-7.0000000000e-09     5     4     1     3
 6.8401530000e-04     5     4     1     5
-4.8436100000e-05     5     4     2     1
-2.0671480000e-04     5     4     2     2
-2.3000000000e-09     5     4     2     3
-1.7745580000e-04     5     4     2     5
-7.2400000000e-08     5     4     3     1
-3.6200000000e-08     5     4     3     2
-1.7305200000e-04     5     4     3     3
 1.2907000000e-06     5     4     3     5
-3.3771718800e-02     5     4     4     1
 9.1075042000e-03     5     4     4     2
-6.1665400000e-05     5     4     4     3
-3.7771288860e-01     5     4     4     5
 3.5549322850e-01     5     5     1     1
 9.3227213000e-02     5     5     1     2
 2.3795280000e-04     5     5     1     3
-6.8401530000e-04     5     5     1     4
 9.3227213000e-02     5     5     2     1
 3.6858809500e-01     5     5     2     2
-6.1366200000e-05     5     5     2     3
 1.7745580000e-04     5     5     2     4
 2.3795280000e-04     5     5     3     1
-6.1366200000e-05     5     5     3     2
 3.7771285570e-01     5     5     3     3
-1.2907000000e-06     5     5     3     4
-6.8401530000e-04     5     5     4     1
 1.7745580000e-04     5     5     4     2
-1.2907000000e-06     5     5     4     3
 3.7771288860e-01     5     5     4     4
0.0 0 0 0 0
 3.1518589500e-01     1     1     2     2
-8.2975700000e-05     1     1     2     3
 2.3978560000e-04     1     1     2     4
-1.2224830700e-02     1     1     2     5
-8.2975700000e-05     1     1     3     2
 3.4364127320e-01     1     1     3     3
-1.3574000000e-06     1     1     3     4
 6.7153900000e-05     1     1     3     5
 2.3978560000e-04     1     1     4     2
-1.3574000000e-06     1     1     4     3
 3.4364140110e-01     1     1     4     4
-1.8856920000e-04     1     1     4     5
-1.2224830700e-02     1     1     5     2
 6.7153900000e-05     1     1     5     3
-1.8856920000e-04     1     1     5     4
 3.5549322850e-01     1     1     5     5
-3.1518589500e-01     1     2     2     1
-2.3797840000e-04     1     2     2     3
 6.8498390000e-04     1     2     2     4
-3.4518004400e-02     1     2     2     5
 8.2975700000e-05     1     2     3     1
 8.9654797000e-02     1     2     3     3
-4.1360000000e-07     1     2     3     4
 1.7855600000e-05     1     2     3     5
-2.3978560000e-04     1     2     4     1
-4.1750000000e-07     1     2     4     3
 8.9654025300e-02     1     2     4     4
-4.8436100000e-05     1     2     4     5
 1.2224830700e-02     1     2     5     1
 1.9411600000e-05     1     2     5     3
-5.4844800000e-05     1     2     5     4
 9.3227213000e-02     1     2     5     5
 8.2975700000e-05     1     3     2     1
 2.3797840000e-04     1     3     2     2
 3.9000000000e-09     1     3     2     4
-1.5560000000e-06     1     3     2     5
-3.4364127320e-01     1     3     3     1
-8.9654797000e-02     1     3     3     2
 6.6672790000e-04     1     3     3     4
-3.3770753800e-02     1     3     3     5
 1.3574000000e-06     1     3     4     1
 4.1750000000e-07     1     3     4     2
 2.3188640000e-04     1     3     4     4
-7.2400000000e-08     1     3     4     5
-6.7153900000e-05     1     3     5     1
-1.9411600000e-05     1     3     5     2
-7.0000000000e-09     1     3     5     4
 2.3795280000e-04     1     3     5     5
-2.3978560000e-04     1     4     2     1
-6.8498390000e-04     1     4     2     2
-3.9000000000e-09     1     4     2     3
 6.4087000000e-06     1     4     2     5
 1.3574000000e-06     1     4     3     1
 4.1360000000e-07     1     4     3     2
-6.6672790000e-04     1     4     3     3
-6.5400000000e-08     1     4     3     5
-3.4364140110e-01     1     4     4     1
-8.9654025300e-02     1     4     4     2
-2.3188640000e-04     1     4     4     3
-3.3771718800e-02     1     4     4     5
 1.8856920000e-04     1     4     5     1
 5.4844800000e-05     1     4     5     2
 7.0000000000e-09     1     4     5     3
-6.8401530000e-04     1     4     5     5
 1.2224830700e-02     1     5     2     1
 3.4518004400e-02     1     5     2     2
 1.5560000000e-06     1     5     2     3
-6.4087000000e-06     1     5     2     4
-6.7153900000e-05     1     5     3     1
-1.7855600000e-05     1     5     3     2
 3.3770753800e-02     1     5     3     3
 6.5400000000e-08     1     5     3     4
 1.8856920000e-04     1     5     4     1
 4.8436100000e-05     1     5     4     2
 7.2400000000e-08     1     5     4     3
 3.3771718800e-02     1     5     4     4
-3.5549322850e-01     1     5     5     1
-9.3227213000e-02     1     5     5     2
-2.3795280000e-04     1     5     5     3
 6.8401530000e-04     1     5     5     4
-3.1518589500e-01     2     1     1     2
 8.2975700000e-05     2     1     1     3
-2.3978560000e-04     2     1     1     4
 1.2224830700e-02     2     1     1     5
-2.3797840000e-04     2     1     3     2
 8.9654797000e-02     2     1     3     3
-4.1750000000e-07     2     1     3     4
 1.9411600000e-05     2     1     3     5
 6.8498390000e-04     2     1     4     2
-4.1360000000e-07     2     1     4     3
 8.9654025300e-02     2     1     4     4
-5.4844800000e-05     2     1     4     5
-3.4518004400e-02     2     1     5     2
 1.7855600000e-05     2     1     5     3
-4.8436100000e-05     2     1     5     4
 9.3227213000e-02     2     1     5     5
 3.1518589500e-01     2     2     1     1
 2.3797840000e-04     2     2     1     3
-6.8498390000e-04     2     2     1     4
 3.4518004400e-02     2     2     1     5
 2.3797840000e-04     2     2     3     1
 3.5551820370e-01     2     2     3     3
-1.5128000000e-06     2     2     3     4
 7.3699800000e-05     2     2     3     5
-6.8498390000e-04     2     2     4     1
-1.5128000000e-06     2     2     4     3
 3.5551799810e-01     2     2     4     4
-2.0671480000e-04     2     2     4     5
 3.4518004400e-02     2     2     5     1
 7.3699800000e-05     2     2     5     3
-2.0671480000e-04     2     2     5     4
 3.6858809500e-01     2     2     5     5
-8.2975700000e-05     2     3     1     1
-2.3797840000e-04     2     3     1     2
-3.9000000000e-09     2     3     1     4
 1.5560000000e-06     2     3     1     5
-8.9654797000e-02     2     3     3     1
-3.5551820370e-01     2     3     3     2
-1.7819480000e-04     2     3     3     4
 9.1078860000e-03     2     3     3     5
 4.1360000000e-07     2     3     4     1
 1.5128000000e-06     2     3     4     2
-6.1569200000e-05     2     3     4     4
-3.6200000000e-08     2     3     4     5
-1.7855600000e-05     2     3     5     1
-7.3699800000e-05     2     3     5     2
-2.3000000000e-09     2     3     5     4
-6.1366200000e-05     2     3     5     5
 2.3978560000e-04     2     4     1     1
 6.8498390000e-04     2     4     1     2
 3.9000000000e-09     2     4     1     3
-6.4087000000e-06     2     4     1     5
 4.1750000000e-07     2     4     3     1
 1.5128000000e-06     2     4     3     2
 1.7819480000e-04     2     4     3     3
-3.3900000000e-08     2     4     3     5
-8.9654025300e-02     2     4     4     1
-3.5551799810e-01     2     4     4     2
 6.1569200000e-05     2     4     4     3
 9.1075042000e-03     2     4     4     5
 4.8436100000e-05     2     4     5     1
 2.0671480000e-04     2     4     5     2
 2.3000000000e-09     2     4     5     3
 1.7745580000e-04     2     4     5     5
-1.2224830700e-02     2     5     1     1
-3.4518004400e-02     2     5     1     2
-1.5560000000e-06     2     5     1     3
 6.4087000000e-06     2     5     1     4
-1.9411600000e-05     2     5     3     1
-7.3699800000e-05     2     5     3     2
-9.1078860000e-03     2     5     3     3
 3.3900000000e-08     2     5     3     4
 5.4844800000e-05     2     5     4     1
 2.0671480000e-04     2     5     4     2
 3.6200000000e-08     2     5     4     3
-9.1075042000e-03     2     5     4     4
-9.3227213000e-02     2     5     5     1
-3.6858809500e-01     2     5     5     2
 6.1366200000e-05     2     5     5     3
-1.7745580000e-04     2     5     5     4
 8.2975700000e-05     3     1     1     2
-3.4364127320e-01     3     1     1     3
 1.3574000000e-06     3     1     1     4
-6.7153900000e-05     3     1     1     5
 2.3797840000e-04     3     1     2     2
-8.9654797000e-02     3     1     2     3
 4.1750000000e-07     3     1     2     4
-1.9411600000e-05     3     1     2     5
 3.9000000000e-09     3     1     4     2
 6.6672790000e-04     3     1     4     3
 2.3188640000e-04     3     1     4     4
-7.0000000000e-09     3     1     4     5
-1.5560000000e-06     3     1     5     2
-3.3770753800e-02     3     1     5     3
-7.2400000000e-08     3     1     5     4
 2.3795280000e-04     3     1     5     5
-8.2975700000e-05     3     2     1     1
-8.9654797000e-02     3     2     1     3
 4.1360000000e-07     3     2     1     4
-1.7855600000e-05     3     2     1     5
-2.3797840000e-04     3     2     2     1
-3.5551820370e-01     3     2     2     3
 1.5128000000e-06     3     2     2     4
-7.3699800000e-05     3     2     2     5
-3.9000000000e-09     3     2     4     1
-1.7819480000e-04     3     2     4     3
-6.1569200000e-05     3     2     4     4
-2.3000000000e-09     3     2     4     5
 1.5560000000e-06     3     2     5     1
 9.1078860000e-03     3     2     5     3
-3.6200000000e-08     3     2     5     4
-6.1366200000e-05     3     2     5     5
 3.4364127320e-01     3     3     1     1
 8.9654797000e-02     3     3     1     2
-6.6672790000e-04     3     3     1     4
 3.3770753800e-02     3     3     1     5
 8.9654797000e-02     3     3     2     1
 3.5551820370e-01     3     3     2     2
 1.7819480000e-04     3     3     2     4
-9.1078860000e-03     3     3     2     5
-6.6672790000e-04     3     3     4     1
 1.7819480000e-04     3     3     4     2
 3.6668828770e-01     3     3     4     4
-1.7305200000e-04     3     3     4     5
 3.3770753800e-02     3     3     5     1
-9.1078860000e-03     3     3     5     2
-1.7305200000e-04     3     3     5     4
 3.7771285570e-01     3     3     5     5
-1.3574000000e-06     3     4     1     1
-4.1360000000e-07     3     4     1     2
 6.6672790000e-04     3     4     1     3
 6.5400000000e-08     3     4     1     5
-4.1750000000e-07     3     4     2     1
-1.5128000000e-06     3     4     2     2
-1.7819480000e-04     3     4     2     3
 3.3900000000e-08     3     4     2     5
-2.3188640000e-04     3     4     4     1
 6.1569200000e-05     3     4     4     2
-3.6668828770e-01     3     4     4     3
-6.1665400000e-05     3     4     4     5
 7.2400000000e-08     3     4     5     1
 3.6200000000e-08     3     4     5     2
 1.7305200000e-04     3     4     5     3
-1.2907000000e-06     3     4     5     5
 6.7153900000e-05     3     5     1     1
 1.7855600000e-05     3     5     1     2
-3.3770753800e-02     3     5     1     3
-6.5400000000e-08     3     5     1     4
 1.9411600000e-05     3     5     2     1
 7.3699800000e-05     3     5     2     2
 9.1078860000e-03     3     5     2     3
-3.3900000000e-08     3     5     2     4
 7.0000000000e-09     3     5     4     1
 2.3000000000e-09     3     5     4     2
 1.7305200000e-04     3     5     4     3
 6.1665400000e-05     3     5     4     4
-2.3795280000e-04     3     5     5     1
 6.1366200000e-05     3     5     5     2
-3.7771285570e-01     3     5     5     3
 1.2907000000e-06     3     5     5     4
-2.3978560000e-04     4     1     1     2
 1.3574000000e-06     4     1     1     3
-3.4364140110e-01     4     1     1     4
 1.8856920000e-04     4     1     1     5
-6.8498390000e-04     4     1     2     2
 4.1360000000e-07     4     1     2     3
-8.9654025300e-02     4     1     2     4
 5.4844800000e-05     4     1     2     5
-3.9000000000e-09     4     1     3     2
-6.6672790000e-04     4     1     3     3
-2.3188640000e-04     4     1     3     4
 7.0000000000e-09     4     1     3     5
 6.4087000000e-06     4     1     5     2
-6.5400000000e-08     4     1     5     3
-3.3771718800e-02     4     1     5     4
-6.8401530000e-04     4     1     5     5
 2.3978560000e-04     4     2     1     1
 4.1750000000e-07     4     2     1     3
-8.9654025300e-02     4     2     1     4
 4.8436100000e-05     4     2     1     5
 6.8498390000e-04     4     2     2     1
 1.5128000000e-06     4     2     2     3
-3.5551799810e-01     4     2     2     4
 2.0671480000e-04     4     2     2     5
 3.9000000000e-09     4     2     3     1
 1.7819480000e-04     4     2     3     3
 6.1569200000e-05     4     2     3     4
 2.3000000000e-09     4     2     3     5
-6.4087000000e-06     4     2     5     1
-3.3900000000e-08     4     2     5     3
 9.1075042000e-03     4     2     5     4
 1.7745580000e-04     4     2     5     5
-1.3574000000e-06     4     3     1     1
-4.1750000000e-07     4     3     1     2
-2.3188640000e-04     4     3     1     4
 7.2400000000e-08     4     3     1     5
-4.1360000000e-07     4     3     2     1
-1.5128000000e-06     4     3     2     2
 6.1569200000e-05     4     3     2     4
 3.6200000000e-08     4     3     2     5
 6.6672790000e-04     4     3     3     1
-1.7819480000e-04     4     3     3     2
-3.6668828770e-01     4     3     3     4
 1.7305200000e-04     4     3     3     5
 6.5400000000e-08     4     3     5     1
 3.3900000000e-08     4     3     5     2
-6.1665400000e-05     4     3     5     4
-1.2907000000e-06     4     3     5     5
 3.4364140110e-01     4     4     1     1
 8.9654025300e-02     4     4     1     2
 2.3188640000e-04     4     4     1     3
 3.3771718800e-02     4     4     1     5
 8.9654025300e-02     4     4     2     1
 3.5551799810e-01     4     4     2     2
-6.1569200000e-05     4     4     2     3
-9.1075042000e-03     4     4     2     5
 2.3188640000e-04     4     4     3     1
-6.1569200000e-05     4     4     3     2
 3.6668828770e-01     4     4     3     3
 6.1665400000e-05     4     4     3     5
 3.3771718800e-02     4     4     5     1
-9.1075042000e-03     4     4     5     2
 6.1665400000e-05     4     4     5     3
 3.7771288860e-01     4     4     5     5
-1.8856920000e-04     4     5     1     1
-4.8436100000e-05     4     5     1     2
-7.2400000000e-08     4     5     1     3
-3.3771718800e-02     4     5     1     4
-5.4844800000e-05     4     5     2     1
-2.0671480000e-04     4     5     2     2
-3.6200000000e-08     4     5     2     3
 9.1075042000e-03     4     5     2     4