&FCI NORB=  5,NELEC=  2,MS2=0,
 ORBSYM=1,1,1,1,1
 ISYM=1,
&END
 2.9692972930e-01     1     1     2     2
-1.0430716400e-02     1     1     2     3
-3.0080500000e-04     1     1     2     4
-1.5295840000e-04     1     1     2     5
-1.0430716400e-02     1     1     3     2
 3.3184766020e-01     1     1     3     3
 8.9857900000e-05     1     1     3     4
 4.5700400000e-05     1     1     3     5
-3.0080500000e-04     1     1     4     2
 8.9857900000e-05     1     1     4     3
 3.2844526630e-01     1     1     4     4
 1.3712000000e-06     1     1     4     5
-1.5295840000e-04     1     1     5     2
 4.5700400000e-05     1     1     5     3
 1.3712000000e-06     1     1     5     4
 3.2842023370e-01     1     1     5     5
-2.9692972930e-01     1     2     2     1
-4.1847935000e-02     1     2     2     3
-1.2247163000e-03     1     2     2     4
-6.2287780000e-04     1     2     2     5
 1.0430716400e-02     1     2     3     1
 8.4044996500e-02     1     2     3     3
 8.0031900000e-05     1     2     3     4
 4.0733900000e-05     1     2     3     5
 3.0080500000e-04     1     2     4     1
 7.7391600000e-05     1     2     4     3
 8.1250043900e-02     1     2     4     4
 1.2311000000e-06     1     2     4     5
 1.5295840000e-04     1     2     5     1
 3.9380500000e-05     1     2     5     3
 1.2262000000e-06     1     2     5     4
 8.1237902500e-02     1     2     5     5
 1.0430716400e-02     1     3     2     1
 4.1847935000e-02     1     3     2     2
 2.6403000000e-06     1     3     2     4
 1.3534000000e-06     1     3     2     5
-3.3184766020e-01     1     3     3     1
-8.4044996500e-02     1     3     3     2
-1.2626351000e-03     1     3     3     4
-6.4225030000e-04     1     3     3     5
-8.9857900000e-05     1     3     4     1
-7.7391600000e-05     1     3     4     2
 4.2969467400e-02     1     3     4     4
-2.8000000000e-08     1     3     4     5
-4.5700400000e-05     1     3     5     1
-3.9380500000e-05     1     3     5     2
-3.2600000000e-08     1     3     5     4
 4.2968131500e-02     1     3     5     5
 3.0080500000e-04     1     4     2     1
 1.2247163000e-03     1     4     2     2
-2.6403000000e-06     1     4     2     3
 4.9000000000e-09     1     4     2     5
-8.9857900000e-05     1     4     3     1
-8.0031900000e-05     1     4     3     2
 1.2626351000e-03     1     4     3     3
 4.6000000000e-09     1     4     3     5
-3.2844526630e-01     1     4     4     1
-8.1250043900e-02     1     4     4     2
-4.2969467400e-02     1     4     4     3
-6.3791330000e-04     1     4     4     5
-1.3712000000e-06     1     4     5     1
-1.2262000000e-06     1     4     5     2
 3.2600000000e-08     1     4     5     3
 1.2540853000e-03     1     4     5     5
 1.5295840000e-04     1     5     2     1
 6.2287780000e-04     1     5     2     2
-1.3534000000e-06     1     5     2     3
-4.9000000000e-09     1     5     2     4
-4.5700400000e-05     1     5     3     1
-4.0733900000e-05     1     5     3     2
 6.4225030000e-04     1     5     3     3
-4.6000000000e-09     1     5     3     4
-1.3712000000e-06     1     5     4     1
-1.2311000000e-06     1     5     4     2
 2.8000000000e-08     1     5     4     3
 6.3791330000e-04     1     5     4     4
-3.2842023370e-01     1     5     5     1
-8.1237902500e-02     1     5     5     2
-4.2968131500e-02     1     5     5     3
-1.2540853000e-03     1     5     5     4
-2.9692972930e-01     2     1     1     2
 1.0430716400e-02     2     1     1     3
 3.0080500000e-04     2     1     1     4
 1.5295840000e-04     2     1     1     5
-4.1847935000e-02     2     1     3     2
 8.4044996500e-02     2     1     3     3
 7.7391600000e-05     2     1     3     4
 3.9380500000e-05     2     1     3     5
-1.2247163000e-03     2     1     4     2
 8.0031900000e-05     2     1     4     3
 8.1250043900e-02     2     1     4     4
 1.2262000000e-06     2     1     4     5
-6.2287780000e-04     2     1     5     2
 4.0733900000e-05     2     1     5     3
 1.2311000000e-06     2     1     5     4
 8.1237902500e-02     2     1     5     5
 2.9692972930e-01     2     2     1     1
 4.1847935000e-02     2     2     1     3
 1.2247163000e-03     2     2     1     4
 6.2287780000e-04     2     2     1     5
 4.1847935000e-02     2     2     3     1
 3.4633958040e-01     2     2     3     3
 1.5384860000e-04     2     2     3     4
 7.8253200000e-05     2     2     3     5
 1.2247163000e-03     2     2     4     1
 1.5384860000e-04     2     2     4     3
 3.4070174310e-01     2     2     4     4
 2.3317000000e-06     2     2     4     5
 6.2287780000e-04     2     2     5     1
 7.8253200000e-05     2     2     5     3
 2.3317000000e-06     2     2     5     4
 3.4067331250e-01     2     2     5     5
-1.0430716400e-02     2     3     1     1
-4.1847935000e-02     2     3     1     2
-2.6403000000e-06     2     3     1     4
-1.3534000000e-06     2     3     1     5
-8.4044996500e-02     2     3     3     1
-3.4633958040e-01     2     3     3     2
 2.1350370000e-04     2     3     3     4
 1.0854610000e-04     2     3     3     5
-8.0031900000e-05     2     3     4     1
-1.5384860000e-04     2     3     4     2
-7.4314595000e-03     2     3     4     4
-1.2900000000e-08     2     3     4     5
-4.0733900000e-05     2     3     5     1
-7.8253200000e-05     2     3     5     2
-1.2400000000e-08     2     3     5     4
-7.4320479000e-03     2     3     5     5
-3.0080500000e-04     2     4     1     1
-1.2247163000e-03     2     4     1     2
 2.6403000000e-06     2     4     1     3
-4.9000000000e-09     2     4     1     5
-7.7391600000e-05     2     4     3     1
-1.5384860000e-04     2     4     3     2
-2.1350370000e-04     2     4     3     3
-5.0000000000e-10     2     4     3     5
-8.1250043900e-02     2     4     4     1
-3.4070174310e-01     2     4     4     2
 7.4314595000e-03     2     4     4     3
 1.0820390000e-04     2     4     4     5
-1.2311000000e-06     2     4     5     1
-2.3317000000e-06     2     4     5     2
 1.2400000000e-08     2     4     5     3
-2.1282350000e-04     2     4     5     5
-1.5295840000e-04     2     5     1     1
-6.2287780000e-04     2     5     1     2
 1.3534000000e-06     2     5     1     3
 4.9000000000e-09     2     5     1     4
-3.9380500000e-05     2     5     3     1
-7.8253200000e-05     2     5     3     2
-1.0854610000e-04     2     5     3     3
 5.0000000000e-10     2     5     3     4
-1.2262000000e-06     2     5     4     1
-2.3317000000e-06     2     5     4     2
 1.2900000000e-08     2     5     4     3
-1.0820390000e-04     2     5     4     4
-8.1237902500e-02     2     5     5     1
-3.4067331250e-01     2     5     5     2
 7.4320479000e-03     2     5     5     3
 2.1282350000e-04     2     5     5     4
 1.0430716400e-02     3     1     1     2
-3.3184766020e-01     3     1     1     3
-8.9857900000e-05     3     1     1     4
-4.5700400000e-05     3     1     1     5
 4.1847935000e-02     3     1     2     2
-8.4044996500e-02     3     1     2     3
-7.7391600000e-05     3     1     2     4
-3.9380500000e-05     3     1     2     5
 2.6403000000e-06     3     1     4     2
-1.2626351000e-03     3     1     4     3
 4.2969467400e-02     3     1     4     4
-3.2600000000e-08     3     1     4     5
 1.3534000000e-06     3     1     5     2
-6.4225030000e-04     3     1     5     3
-2.8000000000e-08     3     1     5     4
 4.2968131500e-02     3     1     5     5
-1.0430716400e-02     3     2     1     1
-8.4044996500e-02     3     2     1     3
-8.0031900000e-05     3     2     1     4
-4.0733900000e-05     3     2     1     5
-4.1847935000e-02     3     2     2     1
-3.4633958040e-01     3     2     2     3
-1.5384860000e-04     3     2     2     4
-7.8253200000e-05     3     2     2     5
-2.6403000000e-06     3     2     4     1
 2.1350370000e-04     3     2     4     3
-7.4314595000e-03     3     2     4     4
-1.2400000000e-08     3     2     4     5
-1.3534000000e-06     3     2     5     1
 1.0854610000e-04     3     2     5     3
-1.2900000000e-08     3     2     5     4
-7.4320479000e-03     3     2     5     5
 3.3184766020e-01     3     3     1     1
 8.4044996500e-02     3     3     1     2
 1.2626351000e-03     3     3     1     4
 6.4225030000e-04     3     3     1     5
 8.4044996500e-02     3     3     2     1
 3.4633958040e-01     3     3     2     2
-2.1350370000e-04     3     3     2     4
-1.0854610000e-04     3     3     2     5
 1.2626351000e-03     3     3     4     1
-2.1350370000e-04     3     3     4     2
 3.5577856340e-01     3     3     4     4
 1.8707000000e-06     3     3     4     5
 6.4225030000e-04     3     3     5     1
-1.0854610000e-04     3     3     5     2
 1.8707000000e-06     3     3     5     4
 3.5575226620e-01     3     3     5     5
 8.9857900000e-05     3     4     1     1
 8.0031900000e-05     3     4     1     2
-1.2626351000e-03     3     4     1     3
-4.6000000000e-09     3     4     1     5
 7.7391600000e-05     3     4     2     1
 1.5384860000e-04     3     4     2     2
 2.1350370000e-04     3     4     2     3
 5.0000000000e-10     3     4     2     5
-4.2969467400e-02     3     4     4     1
 7.4314595000e-03     3     4     4     2
-3.5577856340e-01     3     4     4     3
-6.2172600000e-05     3     4     4     5
 2.8000000000e-08     3     4     5     1
 1.2900000000e-08     3     4     5     2
-1.8707000000e-06     3     4     5     3
 1.2219140000e-04     3     4     5     5
 4.5700400000e-05     3     5     1     1
 4.0733900000e-05     3     5     1     2
-6.4225030000e-04     3     5     1     3
 4.6000000000e-09     3     5     1     4
 3.9380500000e-05     3     5     2     1
 7.8253200000e-05     3     5     2     2
 1.0854610000e-04     3     5     2     3
-5.0000000000e-10     3     5     2     4
 3.2600000000e-08     3     5     4     1
 1.2400000000e-08     3     5     4     2
-1.8707000000e-06     3     5     4     3
 6.2172600000e-05     3     5     4     4
-4.2968131500e-02     3     5     5     1
 7.4320479000e-03     3     5     5     2
-3.5575226620e-01     3     5     5     3
-1.2219140000e-04     3     5     5     4
 3.0080500000e-04     4     1     1     2
-8.9857900000e-05     4     1     1     3
-3.2844526630e-01     4     1     1     4
-1.3712000000e-06     4     1     1     5
 1.2247163000e-03     4     1     2     2
-8.0031900000e-05     4     1     2     3
-8.1250043900e-02     4     1     2     4
-1.2262000000e-06     4     1     2     5
-2.6403000000e-06     4     1     3     2
 1.2626351000e-03     4     1     3     3
-4.2969467400e-02     4     1     3     4
 3.2600000000e-08     4     1     3     5
 4.9000000000e-09     4     1     5     2
 4.6000000000e-09     4     1     5     3
-6.3791330000e-04     4     1     5     4
 1.2540853000e-03     4     1     5     5
-3.0080500000e-04     4     2     1     1
-7.7391600000e-05     4     2     1     3
-8.1250043900e-02     4     2     1     4
-1.2311000000e-06     4     2     1     5
-1.2247163000e-03     4     2     2     1
-1.5384860000e-04     4     2     2     3
-3.4070174310e-01     4     2     2     4
-2.3317000000e-06     4     2     2     5
 2.6403000000e-06     4     2     3     1
-2.1350370000e-04     4     2     3     3
 7.4314595000e-03     4     2     3     4
 1.2400000000e-08     4     2     3     5
-4.9000000000e-09     4     2     5     1
-5.0000000000e-10     4     2     5     3
 1.0820390000e-04     4     2     5     4
-2.1282350000e-04     4     2     5     5
 8.9857900000e-05     4     3     1     1
 7.7391600000e-05     4     3     1     2
-4.2969467400e-02     4     3     1     4
 2.8000000000e-08     4     3     1     5
 8.0031900000e-05     4     3     2     1
 1.5384860000e-04     4     3     2     2
 7.4314595000e-03     4     3     2     4
 1.2900000000e-08     4     3     2     5
-1.2626351000e-03     4     3     3     1
 2.1350370000e-04     4     3     3     2
-3.5577856340e-01     4     3     3     4
-1.8707000000e-06     4     3     3     5
-4.6000000000e-09     4     3     5     1
 5.0000000000e-10     4     3     5     2
-6.2172600000e-05     4     3     5     4
 1.2219140000e-04     4     3     5     5
 3.2844526630e-01     4     4     1     1
 8.1250043900e-02     4     4     1     2
 4.2969467400e-02     4     4     1     3
 6.3791330000e-04     4     4     1     5
 8.1250043900e-02     4     4     2     1
 3.4070174310e-01     4     4     2     2
-7.4314595000e-03     4     4     2     3
-1.0820390000e-04     4     4     2     5
 4.2969467400e-02     4     4     3     1
-7.4314595000e-03     4     4     3     2
 3.5577856340e-01     4     4     3     3
 6.2172600000e-05     4     4     3     5
 6.3791330000e-04     4     4     5     1
-1.0820390000e-04     4     4     5     2
 6.2172600000e-05     4     4     5     3
 3.5121512660e-01     4     4     5     5
 1.3712000000e-06     4     5     1     1
 1.2311000000e-06     4     5     1     2
-2.8000000000e-08     4     5     1     3
-6.3791330000e-04     4     5     1     4
 1.2262000000e-06     4     5     2     1
 2.3317000000e-06     4     5     2     2
-1.2900000000e-08     4     5     2     3
 1.0820390000e-04     4     5     2     4
-3.2600000000e-08     4     5     3     1
-1.2400000000e-08     4     5     3     2
 1.8707000000e-06     4     5     3     3
-6.2172600000e-05     4     5     3     4
-1.2540853000e-03     4     5     5     1
 2.1282350000e-04     4     5     5     2
-1.2219140000e-04     4     5     5     3
-3.5121512660e-01     4     5     5     4
 1.5295840000e-04     5     1     1     2
-4.5700400000e-05     5     1     1     3
-1.3712000000e-06     5     1     1     4
-3.2842023370e-01     5     1     1     5
 6.2287780000e-04     5     1     2     2
-4.0733900000e-05     5     1     2     3
-1.2311000000e-06     5     1     2     4
-8.1237902500e-02     5     1     2     5
-1.3534000000e-06     5     1     3     2
 6.4225030000e-04     5     1     3     3
 2.8000000000e-08     5     1     3     4
-4.2968131500e-02     5     1     3     5
-4.9000000000e-09     5     1     4     2
-4.6000000000e-09     5     1     4     3
 6.3791330000e-04     5     1     4     4
-1.2540853000e-03     5     1     4     5
-1.5295840000e-04     5     2     1     1
-3.9380500000e-05     5     2     1     3
-1.2262000000e-06     5     2     1     4
-8.1237902500e-02     5     2     1     5
-6.2287780000e-04     5     2     2     1
-7.8253200000e-05     5     2     2     3
-2.3317000000e-06     5     2     2     4
-3.4067331250e-01     5     2     2     5
 1.3534000000e-06     5     2     3     1
-1.0854610000e-04     5     2     3     3
 1.2900000000e-08     5     2     3     4
 7.4320479000e-03     5     2     3     5
 4.9000000000e-09     5     2     4     1
 5.0000000000e-10     5     2     4     3
-1.0820390000e-04     5     2     4     4
 2.1282350000e-04     5     2     4     5
 4.5700400000e-05     5     3     1     1
 3.9380500000e-05     5     3     1     2
 3.2600000000e-08     5     3     1     4
-4.2968131500e-02     5     3     1     5
 4.0733900000e-05     5     3     2     1
 7.8253200000e-05     5     3     2     2
 1.2400000000e-08     5     3     2     4
 7.4320479000e-03     5     3     2     5
-6.4225030000e-04     5     3     3     1
 1.0854610000e-04     5     3     3     2
-1.8707000000e-06     5     3     3     4
-3.5575226620e-01     5     3     3     5
 4.6000000000e-09     5     3     4     1
-5.0000000000e-10     5     3     4     2
 6.2172600000e-05     5     3     4     4
-1.2219140000e-04     5     3     4     5
 1.3712000000e-06     5     4     1     1
 1.2262000000e-06     5     4     1     2
-3.2600000000e-08     5     4     1     3
-1.2540853000e-03     5     4     1     5
 1.2311000000e-06     5     4     2     1
 2.3317000000e-06     5     4     2     2
-1.2400000000e-08     5     4     2     3
 2.1282350000e-04     5     4     2     5
-2.8000000000e-08     5     4     3     1
-1.2900000000e-08     5     4     3     2
 1.8707000000e-06     5     4     3     3
-1.2219140000e-04     5     4     3     5
-6.3791330000e-04     5     4     4     1
 1.0820390000e-04     5     4     4     2
-6.2172600000e-05     5     4     4     3
-3.5121512660e-01     5     4     4     5
 3.2842023370e-01     5     5     1     1
 8.1237902500e-02     5     5     1     2
 4.2968131500e-02     5     5     1     3
 1.2540853000e-03     5     5     1     4
 8.1237902500e-02     5     5     2     1
 3.4067331250e-01     5     5     2     2
-7.4320479000e-03     5     5     2     3
-2.1282350000e-04     5     5     2     4
 4.2968131500e-02     5     5     3     1
-7.4320479000e-03     5     5     3     2
 3.5575226620e-01     5     5     3     3
 1.2219140000e-04     5     5     3     4
 1.2540853000e-03     5     5     4     1
-2.1282350000e-04     5     5     4     2
 1.2219140000e-04     5     5     4     3
 3.5121512660e-01     5     5     4     4
0.0 0 0 0 0
 2.9692972930e-01     1     1     2     2
-1.0430716400e-02     1     1     2     3
-3.0080500000e-04     1     1     2     4
-1.5295840000e-04     1     1     2     5
-1.0430716400e-02     1     1     3     2
 3.3184766020e-01     1     1     3     3
 8.9857900000e-05     1     1     3     4
 4.5700400000e-05     1     1     3     5
-3.0080500000e-04     1     1     4     2
 8.9857900000e-05     1     1     4     3
 3.2844526630e-01     1     1     4     4
 1.3712000000e-06     1     1     4     5
-1.5295840000e-04     1     1     5     2
 4.5700400000e-05     1     1     5     3
 1.3712000000e-06     1     1     5     4
 3.2842023370e-01     1     1     5     5
-2.9692972930e-01     1     2     2     1
-4.1847935000e-02     1     2     2     3
-1.2247163000e-03     1     2     2     4
-6.2287780000e-04     1     2     2     5
 1.0430716400e-02     1     2     3     1
 8.4044996500e-02     1     2     3     3
 8.0031900000e-05     1     2     3     4
 4.0733900000e-05     1     2     3     5
 3.0080500000e-04     1     2     4     1
 7.7391600000e-05     1     2     4     3
 8.1250043900e-02     1     2     4     4
 1.2311000000e-06     1     2     4     5
 1.5295840000e-04     1     2     5     1
 3.9380500000e-05     1     2     5     3
 1.2262000000e-06     1     2     5     4
 8.1237902500e-02     1     2     5     5
 1.0430716400e-02     1     3     2     1
 4.1847935000e-02     1     3     2     2
 2.6403000000e-06     1     3     2     4
 1.3534000000e-06     1     3     2     5
-3.3184766020e-01     1     3     3     1
-8.4044996500e-02     1     3     3     2
-1.2626351000e-03     1     3     3     4
-6.4225030000e-04     1     3     3     5
-8.9857900000e-05     1     3     4     1
-7.7391600000e-05     1     3     4     2
 4.2969467400e-02     1     3     4     4
-2.8000000000e-08     1     3     4     5
-4.5700400000e-05     1     3     5     1
-3.9380500000e-05     1     3     5     2
-3.2600000000e-08     1     3     5     4
 4.2968131500e-02     1     3     5     5
 3.0080500000e-04     1     4     2     1
 1.2247163000e-03     1     4     2     2
-2.6403000000e-06     1     4     2     3
 4.9000000000e-09     1     4     2     5
-8.9857900000e-05     1     4     3     1
-8.0031900000e-05     1     4     3     2
 1.2626351000e-03     1     4     3     3
 4.6000000000e-09     1     4     3     5
-3.2844526630e-01     1     4     4     1
-8.1250043900e-02     1     4     4     2
-4.2969467400e-02     1     4     4     3
-6.3791330000e-04     1     4     4     5
-1.3712000000e-06     1     4     5     1
-1.2262000000e-06     1     4     5     2
 3.2600000000e-08     1     4     5     3
 1.2540853000e-03     1     4     5     5
 1.5295840000e-04     1     5     2     1
 6.2287780000e-04     1     5     2     2
-1.3534000000e-06     1     5     2     3
-4.9000000000e-09     1     5     2     4
-4.5700400000e-05     1     5     3     1
-4.0733900000e-05     1     5     3     2
 6.4225030000e-04     1     5     3     3
-4.6000000000e-09     1     5     3     4
-1.3712000000e-06     1     5     4     1
-1.2311000000e-06     1     5     4     2
 2.8000000000e-08     1     5     4     3
 6.3791330000e-04     1     5     4     4
-3.2842023370e-01     1     5     5     1
-8.1237902500e-02     1     5     5     2
-4.2968131500e-02     1     5     5     3
-1.2540853000e-03     1     5     5     4
-2.9692972930e-01     2     1     1     2
 1.0430716400e-02     2     1     1     3
 3.0080500000e-04     2     1     1     4
 1.5295840000e-04     2     1     1     5
-4.1847935000e-02     2     1     3     2
 8.4044996500e-02     2     1     3     3
 7.7391600000e-05     2     1     3     4
 3.9380500000e-05     2     1     3     5
-1.2247163000e-03     2     1     4     2
 8.0031900000e-05     2     1     4     3
 8.1250043900e-02     2     1     4     4
 1.2262000000e-06     2     1     4     5
-6.2287780000e-04     2     1     5     2
 4.0733900000e-05     2     1     5     3
 1.2311000000e-06     2     1     5     4
 8.1237902500e-02     2     1     5     5
 2.9692972930e-01     2     2     1     1
 4.1847935000e-02     2     2     1     3
 1.2247163000e-03     2     2     1     4
 6.2287780000e-04     2     2     1     5
 4.1847935000e-02     2     2     3     1
 3.4633958040e-01     2     2     3     3
 1.5384860000e-04     2     2     3     4
 7.8253200000e-05     2     2     3     5
 1.2247163000e-03     2     2     4     1
 1.5384860000e-04     2     2     4     3
 3.4070174310e-01     2     2     4     4
 2.3317000000e-06     2     2     4     5
 6.2287780000e-04     2     2     5     1
 7.8253200000e-05     2     2     5     3
 2.3317000000e-06     2     2     5     4
 3.4067331250e-01     2     2     5     5
-1.0430716400e-02     2     3     1     1
-4.1847935000e-02     2     3     1     2
-2.6403000000e-06     2     3     1     4
-1.3534000000e-06     2     3     1     5
-8.4044996500e-02     2     3     3     1
-3.4633958040e-01     2     3     3     2
 2.1350370000e-04     2     3     3     4
 1.0854610000e-04     2     3     3     5
-8.0031900000e-05     2     3     4     1
-1.5384860000e-04     2     3     4     2
-7.4314595000e-03     2     3     4     4
-1.2900000000e-08     2     3     4     5
-4.0733900000e-05     2     3     5     1
-7.8253200000e-05     2     3     5     2
-1.2400000000e-08     2     3     5     4
-7.4320479000e-03     2     3     5     5
-3.0080500000e-04     2     4     1     1
-1.2247163000e-03     2     4     1     2
 2.6403000000e-06     2     4     1     3
-4.9000000000e-09     2     4     1     5
-7.7391600000e-05     2     4     3     1
-1.5384860000e-04     2     4     3     2
-2.1350370000e-04     2     4     3     3
-5.0000000000e-10     2     4     3     5
-8.1250043900e-02     2     4     4     1
-3.4070174310e-01     2     4     4     2
 7.4314595000e-03     2     4     4     3
 1.0820390000e-04     2     4     4     5
-1.2311000000e-06     2     4     5     1
-2.3317000000e-06     2     4     5     2
 1.2400000000e-08     2     4     5     3
-2.1282350000e-04     2     4     5     5
-1.5295840000e-04     2     5     1     1
-6.2287780000e-04     2     5     1     2
 1.3534000000e-06     2     5     1     3
 4.9000000000e-09     2     5     1     4
-3.9380500000e-05     2     5     3     1
-7.8253200000e-05     2     5     3     2
-1.0854610000e-04     2     5     3     3
 5.0000000000e-10     2     5     3     4
-1.2262000000e-06     2     5     4     1
-2.3317000000e-06     2     5     4     2
 1.2900000000e-08     2     5     4     3
-1.0820390000e-04     2     5     4     4
-8.1237902500e-02     2     5     5     1
-3.4067331250e-01     2     5     5     2
 7.4320479000e-03     2     5     5     3
 2.1282350000e-04     2     5     5     4
 1.0430716400e-02     3     1     1     2
-3.3184766020e-01     3     1     1     3
-8.9857900000e-05     3     1     1     4
-4.5700400000e-05     3     1     1     5
 4.1847935000e-02     3     1     2     2
-8.4044996500e-02     3     1     2     3
-7.7391600000e-05     3     1     2     4
-3.9380500000e-05     3     1     2     5
 2.6403000000e-06     3     1     4     2
-1.2626351000e-03     3     1     4     3
 4.2969467400e-02     3     1     4     4
-3.2600000000e-08     3     1     4     5
 1.3534000000e-06     3     1     5     2
-6.4225030000e-04     3     1     5     3
-2.8000000000e-08     3     1     5     4
 4.2968131500e-02     3     1     5     5
-1.0430716400e-02     3     2     1     1
-8.4044996500e-02     3     2     1     3
-8.0031900000e-05     3     2     1     4
-4.0733900000e-05     3     2     1     5
-4.1847935000e-02     3     2     2     1
-3.4633958040e-01     3     2     2     3
-1.5384860000e-04     3     2     2     4
-7.8253200000e-05     3     2     2     5
-2.6403000000e-06     3     2     4     1
 2.1350370000e-04     3     2     4     3
-7.4314595000e-03     3     2     4     4
-1.2400000000e-08     3     2     4     5
-1.3534000000e-06     3     2     5     1
 1.0854610000e-04     3     2     5     3
-1.2900000000e-08     3     2     5     4
-7.4320479000e-03     3     2     5     5
 3.3184766020e-01     3     3     1     1
 8.4044996500e-02     3     3     1     2
 1.2626351000e-03     3     3     1     4
 6.4225030000e-04     3     3     1     5
 8.4044996500e-02     3     3     2     1
 3.4633958040e-01     3     3     2     2
-2.1350370000e-04     3     3     2     4
-1.0854610000e-04     3     3     2     5
 1.2626351000e-03     3     3     4     1
-2.1350370000e-04     3     3     4     2
 3.5577856340e-01     3     3     4     4
 1.8707000000e-06     3     3     4     5
 6.4225030000e-04     3     3     5     1
-1.0854610000e-04     3     3     5     2
 1.8707000000e-06     3     3     5     4
 3.5575226620e-01     3     3     5     5
 8.9857900000e-05     3     4     1     1
 8.0031900000e-05     3     4     1     2
-1.2626351000e-03     3     4     1     3
-4.6000000000e-09     3     4     1     5
 7.7391600000e-05     3     4     2     1
 1.5384860000e-04     3     4     2     2
 2.1350370000e-04     3     4     2     3
 5.0000000000e-10     3     4     2     5
-4.2969467400e-02     3     4     4     1
 7.4314595000e-03     3     4     4     2
-3.5577856340e-01     3     4     4     3
-6.2172600000e-05     3     4     4     5
 2.8000000000e-08     3     4     5     1
 1.2900000000e-08     3     4     5     2
-1.8707000000e-06     3     4     5     3
 1.2219140000e-04     3     4     5     5
 4.5700400000e-05     3     5     1     1
 4.0733900000e-05     3     5     1     2
-6.4225030000e-04     3     5     1     3
 4.6000000000e-09     3     5     1     4
 3.9380500000e-05     3     5     2     1
 7.8253200000e-05     3     5     2     2
 1.0854610000e-04     3     5     2     3
-5.0000000000e-10     3     5     2     4
 3.2600000000e-08     3     5     4     1
 1.2400000000e-08     3     5     4     2
-1.8707000000e-06     3     5     4     3
 6.2172600000e-05     3     5     4     4
-4.2968131500e-02     3     5     5     1
 7.4320479000e-03     3     5     5     2
-3.5575226620e-01     3     5     5     3
-1.2219140000e-04     3     5     5     4
 3.0080500000e-04     4     1     1     2
-8.9857900000e-05     4     1     1     3
-3.2844526630e-01     4     1     1     4
-1.3712000000e-06     4     1     1     5
 1.2247163000e-03     4     1     2     2
-8.0031900000e-05     4     1     2     3
-8.1250043900e-02     4     1     2     4
-1.2262000000e-06     4     1     2     5
-2.6403000000e-06     4     1     3     2
 1.2626351000e-03     4     1     3     3
-4.2969467400e-02     4     1     3     4
 3.2600000000e-08     4     1     3     5
 4.9000000000e-09     4     1     5     2
 4.6000000000e-09     4     1     5     3
-6.3791330000e-04     4     1     5     4
 1.2540853000e-03     4     1     5     5
-3.0080500000e-04     4     2     1     1
-7.7391600000e-05     4     2     1     3
-8.1250043900e-02     4     2     1     4
-1.2311000000e-06     4     2     1     5
-1.2247163000e-03     4     2     2     1
-1.5384860000e-04     4     2     2     3
-3.4070174310e-01     4     2     2     4
-2.3317000000e-06     4     2     2     5
 2.6403000000e-06     4     2     3     1
-2.1350370000e-04     4     2     3     3
 7.4314595000e-03     4     2     3     4
 1.2400000000e-08     4     2     3     5
-4.9000000000e-09     4     2     5     1
-5.0000000000e-10     4     2     5     3
 1.0820390000e-04     4     2     5     4
-2.1282350000e-04     4     2     5     5
 8.9857900000e-05     4     3     1     1
 7.7391600000e-05     4     3     1     2
-4.2969467400e-02     4     3     1     4
 2.8000000000e-08     4     3     1     5
 8.0031900000e-05     4     3     2     1
 1.5384860000e-04     4     3     2     2
 7.4314595000e-03     4     3     2     4
 1.2900000000e-08     4     3     2     5
-1.2626351000e-03     4     3     3     1
 2.1350370000e-04     4     3     3     2
-3.5577856340e-01     4     3     3     4
-1.8707000000e-06     4     3     3     5
-4.6000000000e-09     4     3     5     1
 5.0000000000e-10     4     3     5     2
-6.2172600000e-05     4     3     5     4
 1.2219140000e-04     4     3     5     5
 3.2844526630e-01     4     4     1     1
 8.1250043900e-02     4     4     1     2
 4.2969467400e-02     4     4     1     3
 6.3791330000e-04     4     4     1     5
 8.1250043900e-02     4     4     2     1
 3.4070174310e-01     4     4     2     2
-7.4314595000e-03     4     4     2     3
-1.0820390000e-04     4     4     2     5
 4.2969467400e-02     4     4     3     1
-7.4314595000e-03     4     4     3     2
 3.5577856340e-01     4     4     3     3
 6.2172600000e-05     4     4     3     5
 6.3791330000e-04     4     4     5     1
-1.0820390000e-04     4     4     5     2
 6.2172600000e-05     4     4     5     3
 3.5121512660e-01     4     4     5     5
 1.3712000000e-06     4     5     1     1
 1.2311000000e-06     4     5     1     2
-2.8000000000e-08     4     5     1     3
-6.3791330000e-04     4     5     1     4
 1.2262000000e-06     4     5     2     1
 2.3317000000e-06     4     5     2     2
-1.2900000000e-08     4     5     2     3
 1.0820390000e-04     4     5     2     4