&FCI NORB=  5,NELEC=  2,MS2=0,
 ORBSYM=1,1,1,1,1
 ISYM=1,
&END
 2.6290270820e-01     1     1     2     2
-5.4530990000e-03     1     1     2     3
 9.9186600000e-05     1     1     2     4
 4.3236600000e-05     1     1     2     5
-5.4530990000e-03     1     1     3     2
 3.0899452720e-01     1     1     3     3
 3.9726000000e-06     1     1     3     4
 1.7627000000e-06     1     1     3     5
 9.9186600000e-05     1     1     4     2
 3.9726000000e-06     1     1     4     3
 3.1009595540e-01     1     1     4     4
-4.0800000000e-08     1     1     4     5
 4.3236600000e-05     1     1     5     2
 1.7627000000e-06     1     1     5     3
-4.0800000000e-08     1     1     5     4
 3.1010296540e-01     1     1     5     5
-2.6290270820e-01     1     2     2     1
 4.0247851700e-02     1     2     2     3
-7.8492210000e-04     1     2     2     4
-3.4469630000e-04     1     2     2     5
 5.4530990000e-03     1     2     3     1
-7.9327060000e-02     1     2     3     3
 5.8797000000e-05     1     2     3     4
 2.5874000000e-05     1     2     3     5
-9.9186600000e-05     1     2     4     1
 5.8599100000e-05     1     2     4     3
-7.6896968400e-02     1     2     4     4
-5.0240000000e-07     1     2     4     5
-4.3236600000e-05     1     2     5     1
 2.5757700000e-05     1     2     5     3
-4.9930000000e-07     1     2     5     4
-7.6899583400e-02     1     2     5     5
 5.4530990000e-03     1     3     2     1
-4.0247851700e-02     1     3     2     2
 1.9790000000e-07     1     3     2     4
 1.1630000000e-07     1     3     2     5
-3.0899452720e-01     1     3     3     1
 7.9327060000e-02     1     3     3     2
-8.6828160000e-04     1     3     3     4
-3.8160400000e-04     1     3     3     5
-3.9726000000e-06     1     3     4     1
-5.8599100000e-05     1     3     4     2
-4.4459714800e-02     1     3     4     4
 3.1000000000e-09     1     3     4     5
-1.7627000000e-06     1     3     5     1
-2.5757700000e-05     1     3     5     2
 2.4000000000e-09     1     3     5     4
-4.4460205700e-02     1     3     5     5
-9.9186600000e-05     1     4     2     1
 7.8492210000e-04     1     4     2     2
-1.9790000000e-07     1     4     2     3
-3.1000000000e-09     1     4     2     5
-3.9726000000e-06     1     4     3     1
-5.8797000000e-05     1     4     3     2
 8.6828160000e-04     1     4     3     3
 7.0000000000e-10     1     4     3     5
-3.1009595540e-01     1     4     4     1
 7.6896968400e-02     1     4     4     2
 4.4459714800e-02     1     4     4     3
-3.8136660000e-04     1     4     4     5
 4.0800000000e-08     1     4     5     1
 4.9930000000e-07     1     4     5     2
-2.4000000000e-09     1     4     5     3
 8.6773790000e-04     1     4     5     5
-4.3236600000e-05     1     5     2     1
 3.4469630000e-04     1     5     2     2
-1.1630000000e-07     1     5     2     3
 3.1000000000e-09     1     5     2     4
-1.7627000000e-06     1     5     3     1
-2.5874000000e-05     1     5     3     2
 3.8160400000e-04     1     5     3     3
-7.0000000000e-10     1     5     3     4
 4.0800000000e-08     1     5     4     1
 5.0240000000e-07     1     5     4     2
-3.1000000000e-09     1     5     4     3
 3.8136660000e-04     1     5     4     4
-3.1010296540e-01     1     5     5     1
 7.6899583400e-02     1     5     5     2
 4.4460205700e-02     1     5     5     3
-8.6773790000e-04     1     5     5     4
-2.6290270820e-01     2     1     1     2
 5.4530990000e-03     2     1     1     3
-9.9186600000e-05     2     1     1     4
-4.3236600000e-05     2     1     1     5
 4.0247851700e-02     2     1     3     2
-7.9327060000e-02     2     1     3     3
 5.8599100000e-05     2     1     3     4
 2.5757700000e-05     2     1     3     5
-7.8492210000e-04     2     1     4     2
 5.8797000000e-05     2     1     4     3
-7.6896968400e-02     2     1     4     4
-4.9930000000e-07     2     1     4     5
-3.4469630000e-04     2     1     5     2
 2.5874000000e-05     2     1     5     3
-5.0240000000e-07     2     1     5     4
-7.6899583400e-02     2     1     5     5
 2.6290270820e-01     2     2     1     1
-4.0247851700e-02     2     2     1     3
 7.8492210000e-04     2     2     1     4
 3.4469630000e-04     2     2     1     5
-4.0247851700e-02     2     2     3     1
 3.1403974990e-01     2     2     3     3
-2.4675300000e-05     2     2     3     4
-1.0783000000e-05     2     2     3     5
 7.8492210000e-04     2     2     4     1
-2.4675300000e-05     2     2     4     3
 3.1359447270e-01     2     2     4     4
 2.0010000000e-07     2     2     4     5
 3.4469630000e-04     2     2     5     1
-1.0783000000e-05     2     2     5     3
 2.0010000000e-07     2     2     5     4
 3.1360067100e-01     2     2     5     5
-5.4530990000e-03     2     3     1     1
 4.0247851700e-02     2     3     1     2
-1.9790000000e-07     2     3     1     4
-1.1630000000e-07     2     3     1     5
 7.9327060000e-02     2     3     3     1
-3.1403974990e-01     2     3     3     2
-3.4718500000e-05     2     3     3     4
-1.4862600000e-05     2     3     3     5
-5.8797000000e-05     2     3     4     1
 2.4675300000e-05     2     3     4     2
-2.0574061000e-03     2     3     4     4
-1.2000000000e-09     2     3     4     5
-2.5874000000e-05     2     3     5     1
 1.0783000000e-05     2     3     5     2
-3.0000000000e-10     2     3     5     4
-2.0568685000e-03     2     3     5     5
 9.9186600000e-05     2     4     1     1
-7.8492210000e-04     2     4     1     2
 1.9790000000e-07     2     4     1     3
 3.1000000000e-09     2     4     1     5
-5.8599100000e-05     2     4     3     1
 2.4675300000e-05     2     4     3     2
 3.4718500000e-05     2     4     3     3
-9.0000000000e-10     2     4     3     5
 7.6896968400e-02     2     4     4     1
-3.1359447270e-01     2     4     4     2
 2.0574061000e-03     2     4     4     3
-1.3807800000e-05     2     4     4     5
 5.0240000000e-07     2     4     5     1
-2.0010000000e-07     2     4     5     2
 3.0000000000e-10     2     4     5     3
 3.2275900000e-05     2     4     5     5
 4.3236600000e-05     2     5     1     1
-3.4469630000e-04     2     5     1     2
 1.1630000000e-07     2     5     1     3
-3.1000000000e-09     2     5     1     4
-2.5757700000e-05     2     5     3     1
 1.0783000000e-05     2     5     3     2
 1.4862600000e-05     2     5     3     3
 9.0000000000e-10     2     5     3     4
 4.9930000000e-07     2     5     4     1
-2.0010000000e-07     2     5     4     2
 1.2000000000e-09     2     5     4     3
 1.3807800000e-05     2     5     4     4
 7.6899583400e-02     2     5     5     1
-3.1360067100e-01     2     5     5     2
 2.0568685000e-03     2     5     5     3
-3.2275900000e-05     2     5     5     4
 5.4530990000e-03     3     1     1     2
-3.0899452720e-01     3     1     1     3
-3.9726000000e-06     3     1     1     4
-1.7627000000e-06     3     1     1     5
-4.0247851700e-02     3     1     2     2
 7.9327060000e-02     3     1     2     3
-5.8599100000e-05     3     1     2     4
-2.5757700000e-05     3     1     2     5
 1.9790000000e-07     3     1     4     2
-8.6828160000e-04     3     1     4     3
-4.4459714800e-02     3     1     4     4
 2.4000000000e-09     3     1     4     5
 1.1630000000e-07     3     1     5     2
-3.8160400000e-04     3     1     5     3
 3.1000000000e-09     3     1     5     4
-4.4460205700e-02     3     1     5     5
-5.4530990000e-03     3     2     1     1
 7.9327060000e-02     3     2     1     3
-5.8797000000e-05     3     2     1     4
-2.5874000000e-05     3     2     1     5
 4.0247851700e-02     3     2     2     1
-3.1403974990e-01     3     2     2     3
 2.4675300000e-05     3     2     2     4
 1.0783000000e-05     3     2     2     5
-1.9790000000e-07     3     2     4     1
-3.4718500000e-05     3     2     4     3
-2.0574061000e-03     3     2     4     4
-3.0000000000e-10     3     2     4     5
-1.1630000000e-07     3     2     5     1
-1.4862600000e-05     3     2     5     3
-1.2000000000e-09     3     2     5     4
-2.0568685000e-03     3     2     5     5
 3.0899452720e-01     3     3     1     1
-7.9327060000e-02     3     3     1     2
 8.6828160000e-04     3     3     1     4
 3.8160400000e-04     3     3     1     5
-7.9327060000e-02     3     3     2     1
 3.1403974990e-01     3     3     2     2
 3.4718500000e-05     3     3     2     4
 1.4862600000e-05     3     3     2     5
 8.6828160000e-04     3     3     4     1
 3.4718500000e-05     3     3     4     2
 3.3483342000e-01     3     3     4     4
 2.5250000000e-07     3     3     4     5
 3.8160400000e-04     3     3     5     1
 1.4862600000e-05     3     3     5     2
 2.5250000000e-07     3     3     5     4
 3.3484012530e-01     3     3     5     5
 3.9726000000e-06     3     4     1     1
 5.8797000000e-05     3     4     1     2
-8.6828160000e-04     3     4     1     3
-7.0000000000e-10     3     4     1     5
 5.8599100000e-05     3     4     2     1
-2.4675300000e-05     3     4     2     2
-3.4718500000e-05     3     4     2     3
 9.0000000000e-10     3     4     2     5
 4.4459714800e-02     3     4     4     1
 2.0574061000e-03     3     4     4     2
-3.3483342000e-01     3     4     4     3
 1.4075600000e-05     3     4     4     5
-3.1000000000e-09     3     4     5     1
 1.2000000000e-09     3     4     5     2
-2.5250000000e-07     3     4     5     3
-3.2075100000e-05     3     4     5     5
 1.7627000000e-06     3     5     1     1
 2.5874000000e-05     3     5     1     2
-3.8160400000e-04     3     5     1     3
 7.0000000000e-10     3     5     1     4
 2.5757700000e-05     3     5     2     1
-1.0783000000e-05     3     5     2     2
-1.4862600000e-05     3     5     2     3
-9.0000000000e-10     3     5     2     4
-2.4000000000e-09     3     5     4     1
 3.0000000000e-10     3     5     4     2
-2.5250000000e-07     3     5     4     3
-1.4075600000e-05     3     5     4     4
 4.4460205700e-02     3     5     5     1
 2.0568685000e-03     3     5     5     2
-3.3484012530e-01     3     5     5     3
 3.2075100000e-05     3     5     5     4
-9.9186600000e-05     4     1     1     2
-3.9726000000e-06     4     1     1     3
-3.1009595540e-01     4     1     1     4
 4.0800000000e-08     4     1     1     5
 7.8492210000e-04     4     1     2     2
-5.8797000000e-05     4     1     2     3
 7.6896968400e-02     4     1     2     4
 4.9930000000e-07     4     1     2     5
-1.9790000000e-07     4     1     3     2
 8.6828160000e-04     4     1     3     3
 4.4459714800e-02     4     1     3     4
-2.4000000000e-09     4     1     3     5
-3.1000000000e-09     4     1     5     2
 7.0000000000e-10     4     1     5     3
-3.8136660000e-04     4     1     5     4
 8.6773790000e-04     4     1     5     5
 9.9186600000e-05     4     2     1     1
-5.8599100000e-05     4     2     1     3
 7.6896968400e-02     4     2     1     4
 5.0240000000e-07     4     2     1     5
-7.8492210000e-04     4     2     2     1
 2.4675300000e-05     4     2     2     3
-3.1359447270e-01     4     2     2     4
-2.0010000000e-07     4     2     2     5
 1.9790000000e-07     4     2     3     1
 3.4718500000e-05     4     2     3     3
 2.0574061000e-03     4     2     3     4
 3.0000000000e-10     4     2     3     5
 3.1000000000e-09     4     2     5     1
-9.0000000000e-10     4     2     5     3
-1.3807800000e-05     4     2     5     4
 3.2275900000e-05     4     2     5     5
 3.9726000000e-06     4     3     1     1
 5.8599100000e-05     4     3     1     2
 4.4459714800e-02     4     3     1     4
-3.1000000000e-09     4     3     1     5
 5.8797000000e-05     4     3     2     1
-2.4675300000e-05     4     3     2     2
 2.0574061000e-03     4     3     2     4
 1.2000000000e-09     4     3     2     5
-8.6828160000e-04     4     3     3     1
-3.4718500000e-05     4     3     3     2
-3.3483342000e-01     4     3     3     4
-2.5250000000e-07     4     3     3     5
-7.0000000000e-10     4     3     5     1
 9.0000000000e-10     4     3     5     2
 1.4075600000e-05     4     3     5     4
-3.2075100000e-05     4     3     5     5
 3.1009595540e-01     4     4     1     1
-7.6896968400e-02     4     4     1     2
-4.4459714800e-02     4     4     1     3
 3.8136660000e-04     4     4     1     5
-7.6896968400e-02     4     4     2     1
 3.1359447270e-01     4     4     2     2
-2.0574061000e-03     4     4     2     3
 1.3807800000e-05     4     4     2     5
-4.4459714800e-02     4     4     3     1
-2.0574061000e-03     4     4     3     2
 3.3483342000e-01     4     4     3     3
-1.4075600000e-05     4     4     3     5
 3.8136660000e-04     4     4     5     1
 1.3807800000e-05     4     4     5     2
-1.4075600000e-05     4     4     5     3
 3.3402416780e-01     4     4     5     5
-4.0800000000e-08     4     5     1     1
-5.0240000000e-07     4     5     1     2
 3.1000000000e-09     4     5     1     3
-3.8136660000e-04     4     5     1     4
-4.9930000000e-07     4     5     2     1
 2.0010000000e-07     4     5     2     2
-1.2000000000e-09     4     5     2     3
-1.3807800000e-05     4     5     2     4
 2.4000000000e-09     4     5     3     1
-3.0000000000e-10     4     5     3     2
 2.5250000000e-07     4     5     3     3
 1.4075600000e-05     4     5     3     4
-8.6773790000e-04     4     5     5     1
-3.2275900000e-05     4     5     5     2
 3.2075100000e-05     4     5     5     3
-3.3402416780e-01     4     5     5     4
-4.3236600000e-05     5     1     1     2
-1.7627000000e-06     5     1     1     3
 4.0800000000e-08     5     1     1     4
-3.1010296540e-01     5     1     1     5
 3.4469630000e-04     5     1     2     2
-2.5874000000e-05     5     1     2     3
 5.0240000000e-07     5     1     2     4
 7.6899583400e-02     5     1     2     5
-1.1630000000e-07     5     1     3     2
 3.8160400000e-04     5     1     3     3
-3.1000000000e-09     5     1     3     4
 4.4460205700e-02     5     1     3     5
 3.1000000000e-09     5     1     4     2
-7.0000000000e-10     5     1     4     3
 3.8136660000e-04     5     1     4     4
-8.6773790000e-04     5     1     4     5
 4.3236600000e-05     5     2     1     1
-2.5757700000e-05     5     2     1     3
 4.9930000000e-07     5     2     1     4
 7.6899583400e-02     5     2     1     5
-3.4469630000e-04     5     2     2     1
 1.0783000000e-05     5     2     2     3
-2.0010000000e-07     5     2     2     4
-3.1360067100e-01     5     2     2     5
 1.1630000000e-07     5     2     3     1
 1.4862600000e-05     5     2     3     3
 1.2000000000e-09     5     2     3     4
 2.0568685000e-03     5     2     3     5
-3.1000000000e-09     5     2     4     1
 9.0000000000e-10     5     2     4     3
 1.3807800000e-05     5     2     4     4
-3.2275900000e-05     5     2     4     5
 1.7627000000e-06     5     3     1     1
 2.5757700000e-05     5     3     1     2
-2.4000000000e-09     5     3     1     4
 4.4460205700e-02     5     3     1     5
 2.5874000000e-05     5     3     2     1
-1.0783000000e-05     5     3     2     2
 3.0000000000e-10     5     3     2     4
 2.0568685000e-03     5     3     2     5
-3.8160400000e-04     5     3     3     1
-1.4862600000e-05     5     3     3     2
-2.5250000000e-07     5     3     3     4
-3.3484012530e-01     5     3     3     5
 7.0000000000e-10     5     3     4     1
-9.0000000000e-10     5     3     4     2
-1.4075600000e-05     5     3     4     4
 3.2075100000e-05     5     3     4     5
-4.0800000000e-08     5     4     1     1
-4.9930000000e-07     5     4     1     2
 2.4000000000e-09     5     4     1     3
-8.6773790000e-04     5     4     1     5
-5.0240000000e-07     5     4     2     1
 2.0010000000e-07     5     4     2     2
-3.0000000000e-10     5     4     2     3
-3.2275900000e-05     5     4     2     5
 3.1000000000e-09     5     4     3     1
-1.2000000000e-09     5     4     3     2
 2.5250000000e-07     5     4     3     3
 3.2075100000e-05     5     4     3     5
-3.8136660000e-04     5     4     4     1
-1.3807800000e-05     5     4     4     2
 1.4075600000e-05     5     4     4     3
-3.3402416780e-01     5     4     4     5
 3.1010296540e-01     5     5     1     1
-7.6899583400e-02     5     5     1     2
-4.4460205700e-02     5     5     1     3
 8.6773790000e-04     5     5     1     4
-7.6899583400e-02     5     5     2     1
 3.1360067100e-01     5     5     2     2
-2.0568685000e-03     5     5     2     3
 3.2275900000e-05     5     5     2     4
-4.4460205700e-02     5     5     3     1
-2.0568685000e-03     5     5     3     2
 3.3484012530e-01     5     5     3     3
-3.2075100000e-05     5     5     3     4
 8.6773790000e-04     5     5     4     1
 3.2275900000e-05     5     5     4     2
-3.2075100000e-05     5     5     4     3
 3.3402416780e-01     5     5     4     4
0.0 0 0 0 0
 2.6290270820e-01     1     1     2     2
-5.4530990000e-03     1     1     2     3
 9.9186600000e-05     1     1     2     4
 4.3236600000e-05     1     1     2     5
-5.4530990000e-03     1     1     3     2
 3.0899452720e-01     1     1     3     3
 3.9726000000e-06     1     1     3     4
 1.7627000000e-06     1     1     3     5
 9.9186600000e-05     1     1     4     2
 3.9726000000e-06     1     1     4     3
 3.1009595540e-01     1     1     4     4
-4.0800000000e-08     1     1     4     5
 4.3236600000e-05     1     1     5     2
 1.7627000000e-06     1     1     5     3
-4.0800000000e-08     1     1     5     4
 3.1010296540e-01     1     1     5     5
-2.6290270820e-01     1     2     2     1
 4.0247851700e-02     1     2     2     3
-7.8492210000e-04     1     2     2     4
-3.4469630000e-04     1     2     2     5
 5.4530990000e-03     1     2     3     1
-7.9327060000e-02     1     2     3     3
 5.8797000000e-05     1     2     3     4
 2.5874000000e-05     1     2     3     5
-9.9186600000e-05     1     2     4     1
 5.8599100000e-05     1     2     4     3
-7.6896968400e-02     1     2     4     4
-5.0240000000e-07     1     2     4     5
-4.3236600000e-05     1     2     5     1
 2.5757700000e-05     1     2     5     3
-4.9930000000e-07     1     2     5     4
-7.6899583400e-02     1     2     5     5
 5.4530990000e-03     1     3     2     1
-4.0247851700e-02     1     3     2     2
 1.9790000000e-07     1     3     2     4
 1.1630000000e-07     1     3     2     5
-3.0899452720e-01     1     3     3     1
 7.9327060000e-02     1     3     3     2
-8.6828160000e-04     1     3     3     4
-3.8160400000e-04     1     3     3     5
-3.9726000000e-06     1     3     4     1
-5.8599100000e-05     1     3     4     2
-4.4459714800e-02     1     3     4     4
 3.1000000000e-09     1     3     4     5
-1.7627000000e-06     1     3     5     1
-2.5757700000e-05     1     3     5     2
 2.4000000000e-09     1     3     5     4
-4.4460205700e-02     1     3     5     5
-9.9186600000e-05     1     4     2     1
 7.8492210000e-04     1     4     2     2
-1.9790000000e-07     1     4     2     3
-3.1000000000e-09     1     4     2     5
-3.9726000000e-06     1     4     3     1
-5.8797000000e-05     1     4     3     2
 8.6828160000e-04     1     4     3     3
 7.0000000000e-10     1     4     3     5
-3.1009595540e-01     1     4     4     1
 7.6896968400e-02     1     4     4     2
 4.4459714800e-02     1     4     4     3
-3.8136660000e-04     1     4     4     5
 4.0800000000e-08     1     4     5     1
 4.9930000000e-07     1     4     5     2
-2.4000000000e-09     1     4     5     3
 8.6773790000e-04     1     4     5     5
-4.3236600000e-05     1     5     2     1
 3.4469630000e-04     1     5     2     2
-1.1630000000e-07     1     5     2     3
 3.1000000000e-09     1     5     2     4
-1.7627000000e-06     1     5     3     1
-2.5874000000e-05     1     5     3     2
 3.8160400000e-04     1     5     3     3
-7.0000000000e-10     1     5     3     4
 4.0800000000e-08     1     5     4     1
 5.0240000000e-07     1     5     4     2
-3.1000000000e-09     1     5     4     3
 3.8136660000e-04     1     5     4     4
-3.1010296540e-01     1     5     5     1
 7.6899583400e-02     1     5     5     2
 4.4460205700e-02     1     5     5     3
-8.6773790000e-04     1     5     5     4
-2.6290270820e-01     2     1     1     2
 5.4530990000e-03     2     1     1     3
-9.9186600000e-05     2     1     1     4
-4.3236600000e-05     2     1     1     5
 4.0247851700e-02     2     1     3     2
-7.9327060000e-02     2     1     3     3
 5.8599100000e-05     2     1     3     4
 2.5757700000e-05     2     1     3     5
-7.8492210000e-04     2     1     4     2
 5.8797000000e-05     2     1     4     3
-7.6896968400e-02     2     1     4     4
-4.9930000000e-07     2     1     4     5
-3.4469630000e-04     2     1     5     2
 2.5874000000e-05     2     1     5     3
-5.0240000000e-07     2     1     5     4
-7.6899583400e-02     2     1     5     5
 2.6290270820e-01     2     2     1     1
-4.0247851700e-02     2     2     1     3
 7.8492210000e-04     2     2     1     4
 3.4469630000e-04     2     2     1     5
-4.0247851700e-02     2     2     3     1
 3.1403974990e-01     2     2     3     3
-2.4675300000e-05     2     2     3     4
-1.0783000000e-05     2     2     3     5
 7.8492210000e-04     2     2     4     1
-2.4675300000e-05     2     2     4     3
 3.1359447270e-01     2     2     4     4
 2.0010000000e-07     2     2     4     5
 3.4469630000e-04     2     2     5     1
-1.0783000000e-05     2     2     5     3
 2.0010000000e-07     2     2     5     4
 3.1360067100e-01     2     2     5     5
-5.4530990000e-03     2     3     1     1
 4.0247851700e-02     2     3     1     2
-1.9790000000e-07     2     3     1     4
-1.1630000000e-07     2     3     1     5
 7.9327060000e-02     2     3     3     1
-3.1403974990e-01     2     3     3     2
-3.4718500000e-05     2     3     3     4
-1.4862600000e-05     2     3     3     5
-5.8797000000e-05     2     3     4     1
 2.4675300000e-05     2     3     4     2
-2.0574061000e-03     2     3     4     4
-1.2000000000e-09     2     3     4     5
-2.5874000000e-05     2     3     5     1
 1.0783000000e-05     2     3     5     2
-3.0000000000e-10     2     3     5     4
-2.0568685000e-03     2     3     5     5
 9.9186600000e-05     2     4     1     1
-7.8492210000e-04     2     4     1     2
 1.9790000000e-07     2     4     1     3
 3.1000000000e-09     2     4     1     5
-5.8599100000e-05     2     4     3     1
 2.4675300000e-05     2     4     3     2
 3.4718500000e-05     2     4     3     3
-9.0000000000e-10     2     4     3     5
 7.6896968400e-02     2     4     4     1
-3.1359447270e-01     2     4     4     2
 2.0574061000e-03     2     4     4     3
-1.3807800000e-05     2     4     4     5
 5.0240000000e-07     2     4     5     1
-2.0010000000e-07     2     4     5     2
 3.0000000000e-10     2     4     5     3
 3.2275900000e-05     2     4     5     5
 4.3236600000e-05     2     5     1     1
-3.4469630000e-04     2     5     1     2
 1.1630000000e-07     2     5     1     3
-3.1000000000e-09     2     5     1     4
-2.5757700000e-05     2     5     3     1
 1.0783000000e-05     2     5     3     2
 1.4862600000e-05     2     5     3     3
 9.0000000000e-10     2     5     3     4
 4.9930000000e-07     2     5     4     1
-2.0010000000e-07     2     5     4     2
 1.2000000000e-09     2     5     4     3
 1.3807800000e-05     2     5     4     4
 7.6899583400e-02     2     5     5     1
-3.1360067100e-01     2     5     5     2
 2.0568685000e-03     2     5     5     3
-3.2275900000e-05     2     5     5     4
 5.4530990000e-03     3     1     1     2
-3.0899452720e-01     3     1     1     3
-3.9726000000e-06     3     1     1     4
-1.7627000000e-06     3     1     1     5
-4.0247851700e-02     3     1     2     2
 7.9327060000e-02     3     1     2     3
-5.8599100000e-05     3     1     2     4
-2.5757700000e-05     3     1     2     5
 1.9790000000e-07     3     1     4     2
-8.6828160000e-04     3     1     4     3
-4.4459714800e-02     3     1     4     4
 2.4000000000e-09     3     1     4     5
 1.1630000000e-07     3     1     5     2
-3.8160400000e-04     3     1     5     3
 3.1000000000e-09     3     1     5     4
-4.4460205700e-02     3     1     5     5
-5.4530990000e-03     3     2     1     1
 7.9327060000e-02     3     2     1     3
-5.8797000000e-05     3     2     1     4
-2.5874000000e-05     3     2     1     5
 4.0247851700e-02     3     2     2     1
-3.1403974990e-01     3     2     2     3
 2.4675300000e-05     3     2     2     4
 1.0783000000e-05     3     2     2     5
-1.9790000000e-07     3     2     4     1
-3.4718500000e-05     3     2     4     3
-2.0574061000e-03     3     2     4     4
-3.0000000000e-10     3     2     4     5
-1.1630000000e-07     3     2     5     1
-1.4862600000e-05     3     2     5     3
-1.2000000000e-09     3     2     5     4
-2.0568685000e-03     3     2     5     5
 3.0899452720e-01     3     3     1     1
-7.9327060000e-02     3     3     1     2
 8.6828160000e-04     3     3     1     4
 3.8160400000e-04     3     3     1     5
-7.9327060000e-02     3     3     2     1
 3.1403974990e-01     3     3     2     2
 3.4718500000e-05     3     3     2     4
 1.4862600000e-05     3     3     2     5
 8.6828160000e-04     3     3     4     1
 3.4718500000e-05     3     3     4     2
 3.3483342000e-01     3     3     4     4
 2.5250000000e-07     3     3     4     5
 3.8160400000e-04     3     3     5     1
 1.4862600000e-05     3     3     5     2
 2.5250000000e-07     3     3     5     4
 3.3484012530e-01     3     3     5     5
 3.9726000000e-06     3     4     1     1
 5.8797000000e-05     3     4     1     2
-8.6828160000e-04     3     4     1     3
-7.0000000000e-10     3     4     1     5
 5.8599100000e-05     3     4     2     1
-2.4675300000e-05     3     4     2     2
-3.4718500000e-05     3     4     2     3
 9.0000000000e-10     3     4     2     5
 4.4459714800e-02     3     4     4     1
 2.0574061000e-03     3     4     4     2
-3.3483342000e-01     3     4     4     3
 1.4075600000e-05     3     4     4     5
-3.1000000000e-09     3     4     5     1
 1.2000000000e-09     3     4     5     2
-2.5250000000e-07     3     4     5     3
-3.2075100000e-05     3     4     5     5
 1.7627000000e-06     3     5     1     1
 2.5874000000e-05     3     5     1     2
-3.8160400000e-04     3     5     1     3
 7.0000000000e-10     3     5     1     4
 2.5757700000e-05     3     5     2     1
-1.0783000000e-05     3     5     2     2
-1.4862600000e-05     3     5     2     3
-9.0000000000e-10     3     5     2     4
-2.4000000000e-09     3     5     4     1
 3.0000000000e-10     3     5     4     2
-2.5250000000e-07     3     5     4     3
-1.4075600000e-05     3     5     4     4
 4.4460205700e-02     3     5     5     1
 2.0568685000e-03     3     5     5     2
-3.3484012530e-01     3     5     5     3
 3.2075100000e-05     3     5     5     4
-9.9186600000e-05     4     1     1     2
-3.9726000000e-06     4     1     1     3
-3.1009595540e-01     4     1     1     4
 4.0800000000e-08     4     1     1     5
 7.8492210000e-04     4     1     2     2
-5.8797000000e-05     4     1     2     3
 7.6896968400e-02     4     1     2     4
 4.9930000000e-07     4     1     2     5
-1.9790000000e-07     4     1     3     2
 8.6828160000e-04     4     1     3     3
 4.4459714800e-02     4     1     3     4
-2.4000000000e-09     4     1     3     5
-3.1000000000e-09     4     1     5     2
 7.0000000000e-10     4     1     5     3
-3.8136660000e-04     4     1     5     4
 8.6773790000e-04     4     1     5     5
 9.9186600000e-05     4     2     1     1
-5.8599100000e-05     4     2     1     3
 7.6896968400e-02     4     2     1     4
 5.0240000000e-07     4     2     1     5
-7.8492210000e-04     4     2     2     1
 2.4675300000e-05     4     2     2     3
-3.1359447270e-01     4     2     2     4
-2.0010000000e-07     4     2     2     5
 1.9790000000e-07     4     2     3     1
 3.4718500000e-05     4     2     3     3
 2.0574061000e-03     4     2     3     4
 3.0000000000e-10     4     2     3     5
 3.1000000000e-09     4     2     5     1
-9.0000000000e-10     4     2     5     3
-1.3807800000e-05     4     2     5     4
 3.2275900000e-05     4     2     5     5
 3.9726000000e-06     4     3     1     1
 5.8599100000e-05     4     3     1     2
 4.4459714800e-02     4     3     1     4
-3.1000000000e-09     4     3     1     5
 5.8797000000e-05     4     3     2     1
-2.4675300000e-05     4     3     2     2
 2.0574061000e-03     4     3     2     4
 1.2000000000e-09     4     3     2     5
-8.6828160000e-04     4     3     3     1
-3.4718500000e-05     4     3     3     2
-3.3483342000e-01     4     3     3     4
-2.5250000000e-07     4     3     3     5
-7.0000000000e-10     4     3     5     1
 9.0000000000e-10     4     3     5     2
 1.4075600000e-05     4     3     5     4
-3.2075100000e-05     4     3     5     5
 3.1009595540e-01     4     4     1     1
-7.6896968400e-02     4     4     1     2
-4.4459714800e-02     4     4     1     3
 3.8136660000e-04     4     4     1     5
-7.6896968400e-02     4     4     2     1
 3.1359447270e-01     4     4     2     2
-2.0574061000e-03     4     4     2     3
 1.3807800000e-05     4     4     2     5
-4.4459714800e-02     4     4     3     1
-2.0574061000e-03     4     4     3     2
 3.3483342000e-01     4     4     3     3
-1.4075600000e-05     4     4     3     5
 3.8136660000e-04     4     4     5     1
 1.3807800000e-05     4     4     5     2
-1.4075600000e-05     4     4     5     3
 3.3402416780e-01     4     4     5     5
-4.0800000000e-08     4     5     1     1
-5.0240000000e-07     4     5     1     2
 3.1000000000e-09     4     5     1     3
-3.8136660000e-04     4     5     1     4
-4.9930000000e-07     4     5     2     1
 2.0010000000e-07     4     5     2     2
-1.2000000000e-09     4     5     2     3
-1.3807800000e-05     4     5     2     4