&FCI NORB=  5,NELEC=  2,MS2=0,
 ORBSYM=1,1,1,1,1
 ISYM=1,
&END
 3.2457769150e-01     1     1     2     2
 6.1944000000e-06     1     1     2     3
 1.8582100000e-05     1     1     2     4
-9.7384671000e-03     1     1     2     5
 6.1944000000e-06     1     1     3     2
 3.5551241700e-01     1     1     3     3
 2.2200000000e-08     1     1     3     4
-1.0902200000e-05     1     1     3     5
 1.8582100000e-05     1     1     4     2
 2.2200000000e-08     1     1     4     3
 3.5551555590e-01     1     1     4     4
-3.1749100000e-05     1     1     4     5
-9.7384671000e-03     1     1     5     2
-1.0902200000e-05     1     1     5     3
-3.1749100000e-05     1     1     5     4
 3.7712314820e-01     1     1     5     5
-3.2457769150e-01     1     2     2     1
 1.4949500000e-05     1     2     2     3
 4.4127800000e-05     1     2     2     4
-2.1979819100e-02     1     2     2     5
-6.1944000000e-06     1     2     3     1
 9.7132131500e-02     1     2     3     3
 4.2000000000e-09     1     2     3     4
-1.4520000000e-06     1     2     3     5
-1.8582100000e-05     1     2     4     1
 4.0000000000e-09     1     2     4     3
 9.7133405100e-02     1     2     4     4
-4.2005000000e-06     1     2     4     5
 9.7384671000e-03     1     2     5     1
-1.9177000000e-06     1     2     5     3
-5.4444000000e-06     1     2     5     4
 1.0189410620e-01     1     2     5     5
-6.1944000000e-06     1     3     2     1
-1.4949500000e-05     1     3     2     2
 2.0000000000e-10     1     3     2     4
 4.6570000000e-07     1     3     2     5
-3.5551241700e-01     1     3     3     1
-9.7132131500e-02     1     3     3     2
 4.1045000000e-05     1     3     3     4
-2.0533921500e-02     1     3     3     5
-2.2200000000e-08     1     3     4     1
-4.0000000000e-09     1     3     4     2
-1.3967600000e-05     1     3     4     4
 8.0000000000e-10     1     3     4     5
 1.0902200000e-05     1     3     5     1
 1.9177000000e-06     1     3     5     2
 1.0000000000e-10     1     3     5     4
-1.5176700000e-05     1     3     5     5
-1.8582100000e-05     1     4     2     1
-4.4127800000e-05     1     4     2     2
-2.0000000000e-10     1     4     2     3
 1.2439000000e-06     1     4     2     5
-2.2200000000e-08     1     4     3     1
-4.2000000000e-09     1     4     3     2
-4.1045000000e-05     1     4     3     3
 7.0000000000e-10     1     4     3     5
-3.5551555590e-01     1     4     4     1
-9.7133405100e-02     1     4     4     2
 1.3967600000e-05     1     4     4     3
-2.0533873300e-02     1     4     4     5
 3.1749100000e-05     1     4     5     1
 5.4444000000e-06     1     4     5     2
-1.0000000000e-10     1     4     5     3
-4.4866500000e-05     1     4     5     5
 9.7384671000e-03     1     5     2     1
 2.1979819100e-02     1     5     2     2
-4.6570000000e-07     1     5     2     3
-1.2439000000e-06     1     5     2     4
 1.0902200000e-05     1     5     3     1
 1.4520000000e-06     1     5     3     2
 2.0533921500e-02     1     5     3     3
-7.0000000000e-10     1     5     3     4
 3.1749100000e-05     1     5     4     1
 4.2005000000e-06     1     5     4     2
-8.0000000000e-10     1     5     4     3
 2.0533873300e-02     1     5     4     4
-3.7712314820e-01     1     5     5     1
-1.0189410620e-01     1     5     5     2
 1.5176700000e-05     1     5     5     3
 4.4866500000e-05     1     5     5     4
-3.2457769150e-01     2     1     1     2
-6.1944000000e-06     2     1     1     3
-1.8582100000e-05     2     1     1     4
 9.7384671000e-03     2     1     1     5
 1.4949500000e-05     2     1     3     2
 9.7132131500e-02     2     1     3     3
 4.0000000000e-09     2     1     3     4
-1.9177000000e-06     2     1     3     5
 4.4127800000e-05     2     1     4     2
 4.2000000000e-09     2     1     4     3
 9.7133405100e-02     2     1     4     4
-5.4444000000e-06     2     1     4     5
-2.1979819100e-02     2     1     5     2
-1.4520000000e-06     2     1     5     3
-4.2005000000e-06     2     1     5     4
 1.0189410620e-01     2     1     5     5
 3.2457769150e-01     2     2     1     1
-1.4949500000e-05     2     2     1     3
-4.4127800000e-05     2     2     1     4
 2.1979819100e-02     2     2     1     5
-1.4949500000e-05     2     2     3     1
 3.6396556690e-01     2     2     3     3
 2.0300000000e-08     2     2     3     4
-9.6445000000e-06     2     2     3     5
-4.4127800000e-05     2     2     4     1
 2.0300000000e-08     2     2     4     3
 3.6396909060e-01     2     2     4     4
-2.7998700000e-05     2     2     4     5
 2.1979819100e-02     2     2     5     1
-9.6445000000e-06     2     2     5     3
-2.7998700000e-05     2     2     5     4
 3.8427788020e-01     2     2     5     5
 6.1944000000e-06     2     3     1     1
 1.4949500000e-05     2     3     1     2
-2.0000000000e-10     2     3     1     4
-4.6570000000e-07     2     3     1     5
-9.7132131500e-02     2     3     3     1
-3.6396556690e-01     2     3     3     2
-1.2587700000e-05     2     3     3     4
 6.6935535000e-03     2     3     3     5
-4.2000000000e-09     2     3     4     1
-2.0300000000e-08     2     3     4     2
 4.1531000000e-06     2     3     4     4
 1.3000000000e-09     2     3     4     5
 1.4520000000e-06     2     3     5     1
 9.6445000000e-06     2     3     5     2
-1.0000000000e-10     2     3     5     4
 3.9601000000e-06     2     3     5     5
 1.8582100000e-05     2     4     1     1
 4.4127800000e-05     2     4     1     2
 2.0000000000e-10     2     4     1     3
-1.2439000000e-06     2     4     1     5
-4.0000000000e-09     2     4     3     1
-2.0300000000e-08     2     4     3     2
 1.2587700000e-05     2     4     3     3
 1.4000000000e-09     2     4     3     5
-9.7133405100e-02     2     4     4     1
-3.6396909060e-01     2     4     4     2
-4.1531000000e-06     2     4     4     3
 6.6937279000e-03     2     4     4     5
 4.2005000000e-06     2     4     5     1
 2.7998700000e-05     2     4     5     2
 1.0000000000e-10     2     4     5     3
 1.2013100000e-05     2     4     5     5
-9.7384671000e-03     2     5     1     1
-2.1979819100e-02     2     5     1     2
 4.6570000000e-07     2     5     1     3
 1.2439000000e-06     2     5     1     4
 1.9177000000e-06     2     5     3     1
 9.6445000000e-06     2     5     3     2
-6.6935535000e-03     2     5     3     3
-1.4000000000e-09     2     5     3     4
 5.4444000000e-06     2     5     4     1
 2.7998700000e-05     2     5     4     2
-1.3000000000e-09     2     5     4     3
-6.6937279000e-03     2     5     4     4
-1.0189410620e-01     2     5     5     1
-3.8427788020e-01     2     5     5     2
-3.9601000000e-06     2     5     5     3
-1.2013100000e-05     2     5     5     4
-6.1944000000e-06     3     1     1     2
-3.5551241700e-01     3     1     1     3
-2.2200000000e-08     3     1     1     4
 1.0902200000e-05     3     1     1     5
-1.4949500000e-05     3     1     2     2
-9.7132131500e-02     3     1     2     3
-4.0000000000e-09     3     1     2     4
 1.9177000000e-06     3     1     2     5
 2.0000000000e-10     3     1     4     2
 4.1045000000e-05     3     1     4     3
-1.3967600000e-05     3     1     4     4
 1.0000000000e-10     3     1     4     5
 4.6570000000e-07     3     1     5     2
-2.0533921500e-02     3     1     5     3
 8.0000000000e-10     3     1     5     4
-1.5176700000e-05     3     1     5     5
 6.1944000000e-06     3     2     1     1
-9.7132131500e-02     3     2     1     3
-4.2000000000e-09     3     2     1     4
 1.4520000000e-06     3     2     1     5
 1.4949500000e-05     3     2     2     1
-3.6396556690e-01     3     2     2     3
-2.0300000000e-08     3     2     2     4
 9.6445000000e-06     3     2     2     5
-2.0000000000e-10     3     2     4     1
-1.2587700000e-05     3     2     4     3
 4.1531000000e-06     3     2     4     4
-1.0000000000e-10     3     2     4     5
-4.6570000000e-07     3     2     5     1
 6.6935535000e-03     3     2     5     3
 1.3000000000e-09     3     2     5     4
 3.9601000000e-06     3     2     5     5
 3.5551241700e-01     3     3     1     1
 9.7132131500e-02     3     3     1     2
-4.1045000000e-05     3     3     1     4
 2.0533921500e-02     3     3     1     5
 9.7132131500e-02     3     3     2     1
 3.6396556690e-01     3     3     2     2
 1.2587700000e-05     3     3     2     4
-6.6935535000e-03     3     3     2     5
-4.1045000000e-05     3     3     4     1
 1.2587700000e-05     3     3     4     2
 3.7899346350e-01     3     3     4     4
-2.4326800000e-05     3     3     4     5
 2.0533921500e-02     3     3     5     1
-6.6935535000e-03     3     3     5     2
-2.4326800000e-05     3     3     5     4
 3.9680247650e-01     3     3     5     5
 2.2200000000e-08     3     4     1     1
 4.2000000000e-09     3     4     1     2
 4.1045000000e-05     3     4     1     3
-7.0000000000e-10     3     4     1     5
 4.0000000000e-09     3     4     2     1
 2.0300000000e-08     3     4     2     2
-1.2587700000e-05     3     4     2     3
-1.4000000000e-09     3     4     2     5
 1.3967600000e-05     3     4     4     1
-4.1531000000e-06     3     4     4     2
-3.7899346350e-01     3     4     4     3
 8.3999000000e-06     3     4     4     5
-8.0000000000e-10     3     4     5     1
-1.3000000000e-09     3     4     5     2
 2.4326800000e-05     3     4     5     3
 1.8800000000e-08     3     4     5     5
-1.0902200000e-05     3     5     1     1
-1.4520000000e-06     3     5     1     2
-2.0533921500e-02     3     5     1     3
 7.0000000000e-10     3     5     1     4
-1.9177000000e-06     3     5     2     1
-9.6445000000e-06     3     5     2     2
 6.6935535000e-03     3     5     2     3
 1.4000000000e-09     3     5     2     4
-1.0000000000e-10     3     5     4     1
 1.0000000000e-10     3     5     4     2
 2.4326800000e-05     3     5     4     3
-8.3999000000e-06     3     5     4     4
 1.5176700000e-05     3     5     5     1
-3.9601000000e-06     3     5     5     2
-3.9680247650e-01     3     5     5     3
-1.8800000000e-08     3     5     5     4
-1.8582100000e-05     4     1     1     2
-2.2200000000e-08     4     1     1     3
-3.5551555590e-01     4     1     1     4
 3.1749100000e-05     4     1     1     5
-4.4127800000e-05     4     1     2     2
-4.2000000000e-09     4     1     2     3
-9.7133405100e-02     4     1     2     4
 5.4444000000e-06     4     1     2     5
-2.0000000000e-10     4     1     3     2
-4.1045000000e-05     4     1     3     3
 1.3967600000e-05     4     1     3     4
-1.0000000000e-10     4     1     3     5
 1.2439000000e-06     4     1     5     2
 7.0000000000e-10     4     1     5     3
-2.0533873300e-02     4     1     5     4
-4.4866500000e-05     4     1     5     5
 1.8582100000e-05     4     2     1     1
-4.0000000000e-09     4     2     1     3
-9.7133405100e-02     4     2     1     4
 4.2005000000e-06     4     2     1     5
 4.4127800000e-05     4     2     2     1
-2.0300000000e-08     4     2     2     3
-3.6396909060e-01     4     2     2     4
 2.7998700000e-05     4     2     2     5
 2.0000000000e-10     4     2     3     1
 1.2587700000e-05     4     2     3     3
-4.1531000000e-06     4     2     3     4
 1.0000000000e-10     4     2     3     5
-1.2439000000e-06     4     2     5     1
 1.4000000000e-09     4     2     5     3
 6.6937279000e-03     4     2     5     4
 1.2013100000e-05     4     2     5     5
 2.2200000000e-08     4     3     1     1
 4.0000000000e-09     4     3     1     2
 1.3967600000e-05     4     3     1     4
-8.0000000000e-10     4     3     1     5
 4.2000000000e-09     4     3     2     1
 2.0300000000e-08     4     3     2     2
-4.1531000000e-06     4     3     2     4
-1.3000000000e-09     4     3     2     5
 4.1045000000e-05     4     3     3     1
-1.2587700000e-05     4     3     3     2
-3.7899346350e-01     4     3     3     4
 2.4326800000e-05     4     3     3     5
-7.0000000000e-10     4     3     5     1
-1.4000000000e-09     4     3     5     2
 8.3999000000e-06     4     3     5     4
 1.8800000000e-08     4     3     5     5
 3.5551555590e-01     4     4     1     1
 9.7133405100e-02     4     4     1     2
-1.3967600000e-05     4     4     1     3
 2.0533873300e-02     4     4     1     5
 9.7133405100e-02     4     4     2     1
 3.6396909060e-01     4     4     2     2
 4.1531000000e-06     4     4     2     3
-6.6937279000e-03     4     4     2     5
-1.3967600000e-05     4     4     3     1
 4.1531000000e-06     4     4     3     2
 3.7899346350e-01     4     4     3     3
-8.3999000000e-06     4     4     3     5
 2.0533873300e-02     4     4     5     1
-6.6937279000e-03     4     4     5     2
-8.3999000000e-06     4     4     5     3
 3.9680586650e-01     4     4     5     5
-3.1749100000e-05     4     5     1     1
-4.2005000000e-06     4     5     1     2
 8.0000000000e-10     4     5     1     3
-2.0533873300e-02     4     5     1     4
-5.4444000000e-06     4     5     2     1
-2.7998700000e-05     4     5     2     2
 1.3000000000e-09     4     5     2     3
 6.6937279000e-03     4     5     2     4
 1.0000000000e-10     4     5     3     1
-1.0000000000e-10     4     5     3     2
-2.4326800000e-05     4     5     3     3
 8.3999000000e-06     4     5     3     4
 4.4866500000e-05     4     5     5     1
-1.2013100000e-05     4     5     5     2
-1.8800000000e-08     4     5     5     3
-3.9680586650e-01     4     5     5     4
 9.7384671000e-03     5     1     1     2
 1.0902200000e-05     5     1     1     3
 3.1749100000e-05     5     1     1     4
-3.7712314820e-01     5     1     1     5
 2.1979819100e-02     5     1     2     2
 1.4520000000e-06     5     1     2     3
 4.2005000000e-06     5     1     2     4
-1.0189410620e-01     5     1     2     5
-4.6570000000e-07     5     1     3     2
 2.0533921500e-02     5     1     3     3
-8.0000000000e-10     5     1     3     4
 1.5176700000e-05     5     1     3     5
-1.2439000000e-06     5     1     4     2
-7.0000000000e-10     5     1     4     3
 2.0533873300e-02     5     1     4     4
 4.4866500000e-05     5     1     4     5
-9.7384671000e-03     5     2     1     1
 1.9177000000e-06     5     2     1     3
 5.4444000000e-06     5     2     1     4
-1.0189410620e-01     5     2     1     5
-2.1979819100e-02     5     2     2     1
 9.6445000000e-06     5     2     2     3
 2.7998700000e-05     5     2     2     4
-3.8427788020e-01     5     2     2     5
 4.6570000000e-07     5     2     3     1
-6.6935535000e-03     5     2     3     3
-1.3000000000e-09     5     2     3     4
-3.9601000000e-06     5     2     3     5
 1.2439000000e-06     5     2     4     1
-1.4000000000e-09     5     2     4     3
-6.6937279000e-03     5     2     4     4
-1.2013100000e-05     5     2     4     5
-1.0902200000e-05     5     3     1     1
-1.9177000000e-06     5     3     1     2
-1.0000000000e-10     5     3     1     4
 1.5176700000e-05     5     3     1     5
-1.4520000000e-06     5     3     2     1
-9.6445000000e-06     5     3     2     2
 1.0000000000e-10     5     3     2     4
-3.9601000000e-06     5     3     2     5
-2.0533921500e-02     5     3     3     1
 6.6935535000e-03     5     3     3     2
 2.4326800000e-05     5     3     3     4
-3.9680247650e-01     5     3     3     5
 7.0000000000e-10     5     3     4     1
 1.4000000000e-09     5     3     4     2
-8.3999000000e-06     5     3     4     4
-1.8800000000e-08     5     3     4     5
-3.1749100000e-05     5     4     1     1
-5.4444000000e-06     5     4     1     2
 1.0000000000e-10     5     4     1     3
 4.4866500000e-05     5     4     1     5
-4.2005000000e-06     5     4     2     1
-2.7998700000e-05     5     4     2     2
-1.0000000000e-10     5     4     2     3
-1.2013100000e-05     5     4     2     5
 8.0000000000e-10     5     4     3     1
 1.3000000000e-09     5     4     3     2
-2.4326800000e-05     5     4     3     3
-1.8800000000e-08     5     4     3     5
-2.0533873300e-02     5     4     4     1
 6.6937279000e-03     5     4     4     2
 8.3999000000e-06     5     4     4     3
-3.9680586650e-01     5     4     4     5
 3.7712314820e-01     5     5     1     1
 1.0189410620e-01     5     5     1     2
-1.5176700000e-05     5     5     1     3
-4.4866500000e-05     5     5     1     4
 1.0189410620e-01     5     5     2     1
 3.8427788020e-01     5     5     2     2
 3.9601000000e-06     5     5     2     3
 1.2013100000e-05     5     5     2     4
-1.5176700000e-05     5     5     3     1
 3.9601000000e-06     5     5     3     2
 3.9680247650e-01     5     5     3     3
 1.8800000000e-08     5     5     3     4
-4.4866500000e-05     5     5     4     1
 1.2013100000e-05     5     5     4     2
 1.8800000000e-08     5     5     4     3
 3.9680586650e-01     5     5     4     4
0.0 0 0 0 0
 3.2457769150e-01     1     1     2     2
 6.1944000000e-06     1     1     2     3
 1.8582100000e-05     1     1     2     4
-9.7384671000e-03     1     1     2     5
 6.1944000000e-06     1     1     3     2
 3.5551241700e-01     1     1     3     3
 2.2200000000e-08     1     1     3     4
-1.0902200000e-05     1     1     3     5
 1.8582100000e-05     1     1     4     2
 2.2200000000e-08     1     1     4     3
 3.5551555590e-01     1     1     4     4
-3.1749100000e-05     1     1     4     5
-9.7384671000e-03     1     1     5     2
-1.0902200000e-05     1     1     5     3
-3.1749100000e-05     1     1     5     4
 3.7712314820e-01     1     1     5     5
-3.2457769150e-01     1     2     2     1
 1.4949500000e-05     1     2     2     3
 4.4127800000e-05     1     2     2     4
-2.1979819100e-02     1     2     2     5
-6.1944000000e-06     1     2     3     1
 9.7132131500e-02     1     2     3     3
 4.2000000000e-09     1     2     3     4
-1.4520000000e-06     1     2     3     5
-1.8582100000e-05     1     2     4     1
 4.0000000000e-09     1     2     4     3
 9.7133405100e-02     1     2     4     4
-4.2005000000e-06     1     2     4     5
 9.7384671000e-03     1     2     5     1
-1.9177000000e-06     1     2     5     3
-5.4444000000e-06     1     2     5     4
 1.0189410620e-01     1     2     5     5
-6.1944000000e-06     1     3     2     1
-1.4949500000e-05     1     3     2     2
 2.0000000000e-10     1     3     2     4
 4.6570000000e-07     1     3     2     5
-3.5551241700e-01     1     3     3     1
-9.7132131500e-02     1     3     3     2
 4.1045000000e-05     1     3     3     4
-2.0533921500e-02     1     3     3     5
-2.2200000000e-08     1     3     4     1
-4.0000000000e-09     1     3     4     2
-1.3967600000e-05     1     3     4     4
 8.0000000000e-10     1     3     4     5
 1.0902200000e-05     1     3     5     1
 1.9177000000e-06     1     3     5     2
 1.0000000000e-10     1     3     5     4
-1.5176700000e-05     1     3     5     5
-1.8582100000e-05     1     4     2     1
-4.4127800000e-05     1     4     2     2
-2.0000000000e-10     1     4     2     3
 1.2439000000e-06     1     4     2     5
-2.2200000000e-08     1     4     3     1
-4.2000000000e-09     1     4     3     2
-4.1045000000e-05     1     4     3     3
 7.0000000000e-10     1     4     3     5
-3.5551555590e-01     1     4     4     1
-9.7133405100e-02     1     4     4     2
 1.3967600000e-05     1     4     4     3
-2.0533873300e-02     1     4     4     5
 3.1749100000e-05     1     4     5     1
 5.4444000000e-06     1     4     5     2
-1.0000000000e-10     1     4     5     3
-4.4866500000e-05     1     4     5     5
 9.7384671000e-03     1     5     2     1
 2.1979819100e-02     1     5     2     2
-4.6570000000e-07     1     5     2     3
-1.2439000000e-06     1     5     2     4
 1.0902200000e-05     1     5     3     1
 1.4520000000e-06     1     5     3     2
 2.0533921500e-02     1     5     3     3
-7.0000000000e-10     1     5     3     4
 3.1749100000e-05     1     5     4     1
 4.2005000000e-06     1     5     4     2
-8.0000000000e-10     1     5     4     3
 2.0533873300e-02     1     5     4     4
-3.7712314820e-01     1     5     5     1
-1.0189410620e-01     1     5     5     2
 1.5176700000e-05     1     5     5     3
 4.4866500000e-05     1     5     5     4
-3.2457769150e-01     2     1     1     2
-6.1944000000e-06     2     1     1     3
-1.8582100000e-05     2     1     1     4
 9.7384671000e-03     2     1     1     5
 1.4949500000e-05     2     1     3     2
 9.7132131500e-02     2     1     3     3
 4.0000000000e-09     2     1     3     4
-1.9177000000e-06     2     1     3     5
 4.4127800000e-05     2     1     4     2
 4.2000000000e-09     2     1     4     3
 9.7133405100e-02     2     1     4     4
-5.4444000000e-06     2     1     4     5
-2.1979819100e-02     2     1     5     2
-1.4520000000e-06     2     1     5     3
-4.2005000000e-06     2     1     5     4
 1.0189410620e-01     2     1     5     5
 3.2457769150e-01     2     2     1     1
-1.4949500000e-05     2     2     1     3
-4.4127800000e-05     2     2     1     4
 2.1979819100e-02     2     2     1     5
-1.4949500000e-05     2     2     3     1
 3.6396556690e-01     2     2     3     3
 2.0300000000e-08     2     2     3     4
-9.6445000000e-06     2     2     3     5
-4.4127800000e-05     2     2     4     1
 2.0300000000e-08     2     2     4     3
 3.6396909060e-01     2     2     4     4
-2.7998700000e-05     2     2     4     5
 2.1979819100e-02     2     2     5     1
-9.6445000000e-06     2     2     5     3
-2.7998700000e-05     2     2     5     4
 3.8427788020e-01     2     2     5     5
 6.1944000000e-06     2     3     1     1
 1.4949500000e-05     2     3     1     2
-2.0000000000e-10     2     3     1     4
-4.6570000000e-07     2     3     1     5
-9.7132131500e-02     2     3     3     1
-3.6396556690e-01     2     3     3     2
-1.2587700000e-05     2     3     3     4
 6.6935535000e-03     2     3     3     5
-4.2000000000e-09     2     3     4     1
-2.0300000000e-08     2     3     4     2
 4.1531000000e-06     2     3     4     4
 1.3000000000e-09     2     3     4     5
 1.4520000000e-06     2     3     5     1
 9.6445000000e-06     2     3     5     2
-1.0000000000e-10     2     3     5     4
 3.9601000000e-06     2     3     5     5
 1.8582100000e-05     2     4     1     1
 4.4127800000e-05     2     4     1     2
 2.0000000000e-10     2     4     1     3
-1.2439000000e-06     2     4     1     5
-4.0000000000e-09     2     4     3     1
-2.0300000000e-08     2     4     3     2
 1.2587700000e-05     2     4     3     3
 1.4000000000e-09     2     4     3     5
-9.7133405100e-02     2     4     4     1
-3.6396909060e-01     2     4     4     2
-4.1531000000e-06     2     4     4     3
 6.6937279000e-03     2     4     4     5
 4.2005000000e-06     2     4     5     1
 2.7998700000e-05     2     4     5     2
 1.0000000000e-10     2     4     5     3
 1.2013100000e-05     2     4     5     5
-9.7384671000e-03     2     5     1     1
-2.1979819100e-02     2     5     1     2
 4.6570000000e-07     2     5     1     3
 1.2439000000e-06     2     5     1     4
 1.9177000000e-06     2     5     3     1
 9.6445000000e-06     2     5     3     2
-6.6935535000e-03     2     5     3     3
-1.4000000000e-09     2     5     3     4
 5.4444000000e-06     2     5     4     1
 2.7998700000e-05     2     5     4     2
-1.3000000000e-09     2     5     4     3
-6.6937279000e-03     2     5     4     4
-1.0189410620e-01     2     5     5     1
-3.8427788020e-01     2     5     5     2
-3.9601000000e-06     2     5     5     3
-1.2013100000e-05     2     5     5     4
-6.1944000000e-06     3     1     1     2
-3.5551241700e-01     3     1     1     3
-2.2200000000e-08     3     1     1     4
 1.0902200000e-05     3     1     1     5
-1.4949500000e-05     3     1     2     2
-9.7132131500e-02     3     1     2     3
-4.0000000000e-09     3     1     2     4
 1.9177000000e-06     3     1     2     5
 2.0000000000e-10     3     1     4     2
 4.1045000000e-05     3     1     4     3
-1.3967600000e-05     3     1     4     4
 1.0000000000e-10     3     1     4     5
 4.6570000000e-07     3     1     5     2
-2.0533921500e-02     3     1     5     3
 8.0000000000e-10     3     1     5     4
-1.5176700000e-05     3     1     5     5
 6.1944000000e-06     3     2     1     1
-9.7132131500e-02     3     2     1     3
-4.2000000000e-09     3     2     1     4
 1.4520000000e-06     3     2     1     5
 1.4949500000e-05     3     2     2     1
-3.6396556690e-01     3     2     2     3
-2.0300000000e-08     3     2     2     4
 9.6445000000e-06     3     2     2     5
-2.0000000000e-10     3     2     4     1
-1.2587700000e-05     3     2     4     3
 4.1531000000e-06     3     2     4     4
-1.0000000000e-10     3     2     4     5
-4.6570000000e-07     3     2     5     1
 6.6935535000e-03     3     2     5     3
 1.3000000000e-09     3     2     5     4
 3.9601000000e-06     3     2     5     5
 3.5551241700e-01     3     3     1     1
 9.7132131500e-02     3     3     1     2
-4.1045000000e-05     3     3     1     4
 2.0533921500e-02     3     3     1     5
 9.7132131500e-02     3     3     2     1
 3.6396556690e-01     3     3     2     2
 1.2587700000e-05     3     3     2     4
-6.6935535000e-03     3     3     2     5
-4.1045000000e-05     3     3     4     1
 1.2587700000e-05     3     3     4     2
 3.7899346350e-01     3     3     4     4
-2.4326800000e-05     3     3     4     5
 2.0533921500e-02     3     3     5     1
-6.6935535000e-03     3     3     5     2
-2.4326800000e-05     3     3     5     4
 3.9680247650e-01     3     3     5     5
 2.2200000000e-08     3     4     1     1
 4.2000000000e-09     3     4     1     2
 4.1045000000e-05     3     4     1     3
-7.0000000000e-10     3     4     1     5
 4.0000000000e-09     3     4     2     1
 2.0300000000e-08     3     4     2     2
-1.2587700000e-05     3     4     2     3
-1.4000000000e-09     3     4     2     5
 1.3967600000e-05     3     4     4     1
-4.1531000000e-06     3     4     4     2
-3.7899346350e-01     3     4     4     3
 8.3999000000e-06     3     4     4     5
-8.0000000000e-10     3     4     5     1
-1.3000000000e-09     3     4     5     2
 2.4326800000e-05     3     4     5     3
 1.8800000000e-08     3     4     5     5
-1.0902200000e-05     3     5     1     1
-1.4520000000e-06     3     5     1     2
-2.0533921500e-02     3     5     1     3
 7.0000000000e-10     3     5     1     4
-1.9177000000e-06     3     5     2     1
-9.6445000000e-06     3     5     2     2
 6.6935535000e-03     3     5     2     3
 1.4000000000e-09     3     5     2     4
-1.0000000000e-10     3     5     4     1
 1.0000000000e-10     3     5     4     2
 2.4326800000e-05     3     5     4     3
-8.3999000000e-06     3     5     4     4
 1.5176700000e-05     3     5     5     1
-3.9601000000e-06     3     5     5     2
-3.9680247650e-01     3     5     5     3
-1.8800000000e-08     3     5     5     4
-1.8582100000e-05     4     1     1     2
-2.2200000000e-08     4     1     1     3
-3.5551555590e-01     4     1     1     4
 3.1749100000e-05     4     1     1     5
-4.4127800000e-05     4     1     2     2
-4.2000000000e-09     4     1     2     3
-9.7133405100e-02     4     1     2     4
 5.4444000000e-06     4     1     2     5
-2.0000000000e-10     4     1     3     2
-4.1045000000e-05     4     1     3     3
 1.3967600000e-05     4     1     3     4
-1.0000000000e-10     4     1     3     5
 1.2439000000e-06     4     1     5     2
 7.0000000000e-10     4     1     5     3
-2.0533873300e-02     4     1     5     4
-4.4866500000e-05     4     1     5     5
 1.8582100000e-05     4     2     1     1
-4.0000000000e-09     4     2     1     3
-9.7133405100e-02     4     2     1     4
 4.2005000000e-06     4     2     1     5
 4.4127800000e-05     4     2     2     1
-2.0300000000e-08     4     2     2     3
-3.6396909060e-01     4     2     2     4
 2.7998700000e-05     4     2     2     5
 2.0000000000e-10     4     2     3     1
 1.2587700000e-05     4     2     3     3
-4.1531000000e-06     4     2     3     4
 1.0000000000e-10     4     2     3     5
-1.2439000000e-06     4     2     5     1
 1.4000000000e-09     4     2     5     3
 6.6937279000e-03     4     2     5     4
 1.2013100000e-05     4     2     5     5
 2.2200000000e-08     4     3     1     1
 4.0000000000e-09     4     3     1     2
 1.3967600000e-05     4     3     1     4
-8.0000000000e-10     4     3     1     5
 4.2000000000e-09     4     3     2     1
 2.0300000000e-08     4     3     2     2
-4.1531000000e-06     4     3     2     4
-1.3000000000e-09     4     3     2     5
 4.1045000000e-05     4     3     3     1
-1.2587700000e-05     4     3     3     2
-3.7899346350e-01     4     3     3     4
 2.4326800000e-05     4     3     3     5
-7.0000000000e-10     4     3     5     1
-1.4000000000e-09     4     3     5     2
 8.3999000000e-06     4     3     5     4
 1.8800000000e-08     4     3     5     5
 3.5551555590e-01     4     4     1     1
 9.7133405100e-02     4     4     1     2
-1.3967600000e-05     4     4     1     3
 2.0533873300e-02     4     4     1     5
 9.7133405100e-02     4     4     2     1
 3.6396909060e-01     4     4     2     2
 4.1531000000e-06     4     4     2     3
-6.6937279000e-03     4     4     2     5
-1.3967600000e-05     4     4     3     1
 4.1531000000e-06     4     4     3     2
 3.7899346350e-01     4     4     3     3
-8.3999000000e-06     4     4     3     5
 2.0533873300e-02     4     4     5     1
-6.6937279000e-03     4     4     5     2
-8.3999000000e-06     4     4     5     3
 3.9680586650e-01     4     4     5     5
-3.1749100000e-05     4     5     1     1
-4.2005000000e-06     4     5     1     2
 8.0000000000e-10     4     5     1     3
-2.0533873300e-02     4     5     1     4
-5.4444000000e-06     4     5     2     1
-2.7998700000e-05     4     5     2     2
 1.3000000000e-09     4     5     2     3
 6.6937279000e-03     4     5     2     4