&FCI NORB=  5,NELEC=  2,MS2=0,
 ORBSYM=1,1,1,1,1
 ISYM=1,
&END
 1.7485790260e-01     1     1     2     2
-9.9802033000e-03     1     1     2     3
 9.8497200000e-05     1     1     2     4
-1.7258680000e-04     1     1     2     5
-9.9802033000e-03     1     1     3     2
 2.8402059770e-01     1     1     3     3
 4.5583000000e-06     1     1     3     4
-1.0970100000e-05     1     1     3     5
 9.8497200000e-05     1     1     4     2
 4.5583000000e-06     1     1     4     3
 2.8923800500e-01     1     1     4     4
-2.8100000000e-08     1     1     4     5
-1.7258680000e-04     1     1     5     2
-1.0970100000e-05     1     1     5     3
-2.8100000000e-08     1     1     5     4
 2.8922270590e-01     1     1     5     5
-1.7485790260e-01     1     2     2     1
-1.8777208600e-02     1     2     2     3
-4.4892100000e-05     1     2     2     4
 4.6640500000e-05     1     2     2     5
 9.9802033000e-03     1     2     3     1
-8.8301215200e-02     1     2     3     3
 9.3188000000e-06     1     2     3     4
-1.8245200000e-05     1     2     3     5
-9.8497200000e-05     1     2     4     1
 9.7600000000e-07     1     2     4     3
-8.7805732100e-02     1     2     4     4
-2.2100000000e-08     1     2     4     5
 1.7258680000e-04     1     2     5     1
-4.9492000000e-06     1     2     5     3
 2.6700000000e-08     1     2     5     4
-8.7797716400e-02     1     2     5     5
 9.9802033000e-03     1     3     2     1
 1.8777208600e-02     1     3     2     2
 8.3428000000e-06     1     3     2     4
-1.3296000000e-05     1     3     2     5
-2.8402059770e-01     1     3     3     1
 8.8301215200e-02     1     3     3     2
 8.4863000000e-05     1     3     3     4
-1.9113250000e-04     1     3     3     5
-4.5583000000e-06     1     3     4     1
-9.7600000000e-07     1     3     4     2
 4.0007441200e-02     1     3     4     4
 1.3800000000e-08     1     3     4     5
 1.0970100000e-05     1     3     5     1
 4.9492000000e-06     1     3     5     2
 2.7200000000e-08     1     3     5     4
 4.0006189600e-02     1     3     5     5
-9.8497200000e-05     1     4     2     1
 4.4892100000e-05     1     4     2     2
-8.3428000000e-06     1     4     2     3
-4.8800000000e-08     1     4     2     5
-4.5583000000e-06     1     4     3     1
-9.3188000000e-06     1     4     3     2
-8.4863000000e-05     1     4     3     3
-1.3400000000e-08     1     4     3     5
-2.8923800500e-01     1     4     4     1
 8.7805732100e-02     1     4     4     2
-4.0007441200e-02     1     4     4     3
-1.9324080000e-04     1     4     4     5
 2.8100000000e-08     1     4     5     1
-2.6700000000e-08     1     4     5     2
-2.7200000000e-08     1     4     5     3
-8.5711500000e-05     1     4     5     5
 1.7258680000e-04     1     5     2     1
-4.6640500000e-05     1     5     2     2
 1.3296000000e-05     1     5     2     3
 4.8800000000e-08     1     5     2     4
 1.0970100000e-05     1     5     3     1
 1.8245200000e-05     1     5     3     2
 1.9113250000e-04     1     5     3     3
 1.3400000000e-08     1     5     3     4
 2.8100000000e-08     1     5     4     1
 2.2100000000e-08     1     5     4     2
-1.3800000000e-08     1     5     4     3
 1.9324080000e-04     1     5     4     4
-2.8922270590e-01     1     5     5     1
 8.7797716400e-02     1     5     5     2
-4.0006189600e-02     1     5     5     3
 8.5711500000e-05     1     5     5     4
-1.7485790260e-01     2     1     1     2
 9.9802033000e-03     2     1     1     3
-9.8497200000e-05     2     1     1     4
 1.7258680000e-04     2     1     1     5
-1.8777208600e-02     2     1     3     2
-8.8301215200e-02     2     1     3     3
 9.7600000000e-07     2     1     3     4
-4.9492000000e-06     2     1     3     5
-4.4892100000e-05     2     1     4     2
 9.3188000000e-06     2     1     4     3
-8.7805732100e-02     2     1     4     4
 2.6700000000e-08     2     1     4     5
 4.6640500000e-05     2     1     5     2
-1.8245200000e-05     2     1     5     3
-2.2100000000e-08     2     1     5     4
-8.7797716400e-02     2     1     5     5
 1.7485790260e-01     2     2     1     1
 1.8777208600e-02     2     2     1     3
 4.4892100000e-05     2     2     1     4
-4.6640500000e-05     2     2     1     5
 1.8777208600e-02     2     2     3     1
 2.2809156850e-01     2     2     3     3
 3.5422100000e-05     2     2     3     4
-6.6225900000e-05     2     2     3     5
 4.4892100000e-05     2     2     4     1
 3.5422100000e-05     2     2     4     3
 2.3583175150e-01     2     2     4     4
 2.7120000000e-07     2     2     4     5
-4.6640500000e-05     2     2     5     1
-6.6225900000e-05     2     2     5     3
 2.7120000000e-07     2     2     5     4
 2.3582463900e-01     2     2     5     5
-9.9802033000e-03     2     3     1     1
-1.8777208600e-02     2     3     1     2
-8.3428000000e-06     2     3     1     4
 1.3296000000e-05     2     3     1     5
 8.8301215200e-02     2     3     3     1
-2.2809156850e-01     2     3     3     2
-1.5502310000e-04     2     3     3     4
 2.7787410000e-04     2     3     3     5
-9.3188000000e-06     2     3     4     1
-3.5422100000e-05     2     3     4     2
-2.0938589600e-02     2     3     4     4
-1.1000000000e-08     2     3     4     5
 1.8245200000e-05     2     3     5     1
 6.6225900000e-05     2     3     5     2
-1.7600000000e-08     2     3     5     4
-2.0936072600e-02     2     3     5     5
 9.8497200000e-05     2     4     1     1
-4.4892100000e-05     2     4     1     2
 8.3428000000e-06     2     4     1     3
 4.8800000000e-08     2     4     1     5
-9.7600000000e-07     2     4     3     1
-3.5422100000e-05     2     4     3     2
 1.5502310000e-04     2     4     3     3
 6.6000000000e-09     2     4     3     5
 8.7805732100e-02     2     4     4     1
-2.3583175150e-01     2     4     4     2
 2.0938589600e-02     2     4     4     3
 2.8197270000e-04     2     4     4     5
 2.2100000000e-08     2     4     5     1
-2.7120000000e-07     2     4     5     2
 1.7600000000e-08     2     4     5     3
 1.5697770000e-04     2     4     5     5
-1.7258680000e-04     2     5     1     1
 4.6640500000e-05     2     5     1     2
-1.3296000000e-05     2     5     1     3
-4.8800000000e-08     2     5     1     4
 4.9492000000e-06     2     5     3     1
 6.6225900000e-05     2     5     3     2
-2.7787410000e-04     2     5     3     3
-6.6000000000e-09     2     5     3     4
-2.6700000000e-08     2     5     4     1
-2.7120000000e-07     2     5     4     2
 1.1000000000e-08     2     5     4     3
-2.8197270000e-04     2     5     4     4
 8.7797716400e-02     2     5     5     1
-2.3582463900e-01     2     5     5     2
 2.0936072600e-02     2     5     5     3
-1.5697770000e-04     2     5     5     4
 9.9802033000e-03     3     1     1     2
-2.8402059770e-01     3     1     1     3
-4.5583000000e-06     3     1     1     4
 1.0970100000e-05     3     1     1     5
 1.8777208600e-02     3     1     2     2
 8.8301215200e-02     3     1     2     3
-9.7600000000e-07     3     1     2     4
 4.9492000000e-06     3     1     2     5
 8.3428000000e-06     3     1     4     2
 8.4863000000e-05     3     1     4     3
 4.0007441200e-02     3     1     4     4
 2.7200000000e-08     3     1     4     5
-1.3296000000e-05     3     1     5     2
-1.9113250000e-04     3     1     5     3
 1.3800000000e-08     3     1     5     4
 4.0006189600e-02     3     1     5     5
-9.9802033000e-03     3     2     1     1
 8.8301215200e-02     3     2     1     3
-9.3188000000e-06     3     2     1     4
 1.8245200000e-05     3     2     1     5
-1.8777208600e-02     3     2     2     1
-2.2809156850e-01     3     2     2     3
-3.5422100000e-05     3     2     2     4
 6.6225900000e-05     3     2     2     5
-8.3428000000e-06     3     2     4     1
-1.5502310000e-04     3     2     4     3
-2.0938589600e-02     3     2     4     4
-1.7600000000e-08     3     2     4     5
 1.3296000000e-05     3     2     5     1
 2.7787410000e-04     3     2     5     3
-1.1000000000e-08     3     2     5     4
-2.0936072600e-02     3     2     5     5
 2.8402059770e-01     3     3     1     1
-8.8301215200e-02     3     3     1     2
-8.4863000000e-05     3     3     1     4
 1.9113250000e-04     3     3     1     5
-8.8301215200e-02     3     3     2     1
 2.2809156850e-01     3     3     2     2
 1.5502310000e-04     3     3     2     4
-2.7787410000e-04     3     3     2     5
-8.4863000000e-05     3     3     4     1
 1.5502310000e-04     3     3     4     2
 3.2490235050e-01     3     3     4     4
 3.7900000000e-08     3     3     4     5
 1.9113250000e-04     3     3     5     1
-2.7787410000e-04     3     3     5     2
 3.7900000000e-08     3     3     5     4
 3.2488446050e-01     3     3     5     5
 4.5583000000e-06     3     4     1     1
 9.3188000000e-06     3     4     1     2
 8.4863000000e-05     3     4     1     3
 1.3400000000e-08     3     4     1     5
 9.7600000000e-07     3     4     2     1
 3.5422100000e-05     3     4     2     2
-1.5502310000e-04     3     4     2     3
-6.6000000000e-09     3     4     2     5
-4.0007441200e-02     3     4     4     1
 2.0938589600e-02     3     4     4     2
-3.2490235050e-01     3     4     4     3
 8.1344000000e-06     3     4     4     5
-1.3800000000e-08     3     4     5     1
 1.1000000000e-08     3     4     5     2
-3.7900000000e-08     3     4     5     3
 4.4318000000e-06     3     4     5     5
-1.0970100000e-05     3     5     1     1
-1.8245200000e-05     3     5     1     2
-1.9113250000e-04     3     5     1     3
-1.3400000000e-08     3     5     1     4
-4.9492000000e-06     3     5     2     1
-6.6225900000e-05     3     5     2     2
 2.7787410000e-04     3     5     2     3
 6.6000000000e-09     3     5     2     4
-2.7200000000e-08     3     5     4     1
 1.7600000000e-08     3     5     4     2
-3.7900000000e-08     3     5     4     3
-8.1344000000e-06     3     5     4     4
-4.0006189600e-02     3     5     5     1
 2.0936072600e-02     3     5     5     2
-3.2488446050e-01     3     5     5     3
-4.4318000000e-06     3     5     5     4
-9.8497200000e-05     4     1     1     2
-4.5583000000e-06     4     1     1     3
-2.8923800500e-01     4     1     1     4
 2.8100000000e-08     4     1     1     5
 4.4892100000e-05     4     1     2     2
-9.3188000000e-06     4     1     2     3
 8.7805732100e-02     4     1     2     4
-2.6700000000e-08     4     1     2     5
-8.3428000000e-06     4     1     3     2
-8.4863000000e-05     4     1     3     3
-4.0007441200e-02     4     1     3     4
-2.7200000000e-08     4     1     3     5
-4.8800000000e-08     4     1     5     2
-1.3400000000e-08     4     1     5     3
-1.9324080000e-04     4     1     5     4
-8.5711500000e-05     4     1     5     5
 9.8497200000e-05     4     2     1     1
-9.7600000000e-07     4     2     1     3
 8.7805732100e-02     4     2     1     4
 2.2100000000e-08     4     2     1     5
-4.4892100000e-05     4     2     2     1
-3.5422100000e-05     4     2     2     3
-2.3583175150e-01     4     2     2     4
-2.7120000000e-07     4     2     2     5
 8.3428000000e-06     4     2     3     1
 1.5502310000e-04     4     2     3     3
 2.0938589600e-02     4     2     3     4
 1.7600000000e-08     4     2     3     5
 4.8800000000e-08     4     2     5     1
 6.6000000000e-09     4     2     5     3
 2.8197270000e-04     4     2     5     4
 1.5697770000e-04     4     2     5     5
 4.5583000000e-06     4     3     1     1
 9.7600000000e-07     4     3     1     2
-4.0007441200e-02     4     3     1     4
-1.3800000000e-08     4     3     1     5
 9.3188000000e-06     4     3     2     1
 3.5422100000e-05     4     3     2     2
 2.0938589600e-02     4     3     2     4
 1.1000000000e-08     4     3     2     5
 8.4863000000e-05     4     3     3     1
-1.5502310000e-04     4     3     3     2
-3.2490235050e-01     4     3     3     4
-3.7900000000e-08     4     3     3     5
 1.3400000000e-08     4     3     5     1
-6.6000000000e-09     4     3     5     2
 8.1344000000e-06     4     3     5     4
 4.4318000000e-06     4     3     5     5
 2.8923800500e-01     4     4     1     1
-8.7805732100e-02     4     4     1     2
 4.0007441200e-02     4     4     1     3
 1.9324080000e-04     4     4     1     5
-8.7805732100e-02     4     4     2     1
 2.3583175150e-01     4     4     2     2
-2.0938589600e-02     4     4     2     3
-2.8197270000e-04     4     4     2     5
 4.0007441200e-02     4     4     3     1
-2.0938589600e-02     4     4     3     2
 3.2490235050e-01     4     4     3     3
-8.1344000000e-06     4     4     3     5
 1.9324080000e-04     4     4     5     1
-2.8197270000e-04     4     4     5     2
-8.1344000000e-06     4     4     5     3
 3.2841130300e-01     4     4     5     5
-2.8100000000e-08     4     5     1     1
-2.2100000000e-08     4     5     1     2
 1.3800000000e-08     4     5     1     3
-1.9324080000e-04     4     5     1     4
 2.6700000000e-08     4     5     2     1
 2.7120000000e-07     4     5     2     2
-1.1000000000e-08     4     5     2     3
 2.8197270000e-04     4     5     2     4
 2.7200000000e-08     4     5     3     1
-1.7600000000e-08     4     5     3     2
 3.7900000000e-08     4     5     3     3
 8.1344000000e-06     4     5     3     4
 8.5711500000e-05     4     5     5     1
-1.5697770000e-04     4     5     5     2
-4.4318000000e-06     4     5     5     3
-3.2841130300e-01     4     5     5     4
 1.7258680000e-04     5     1     1     2
 1.0970100000e-05     5     1     1     3
 2.8100000000e-08     5     1     1     4
-2.8922270590e-01     5     1     1     5
-4.6640500000e-05     5     1     2     2
 1.8245200000e-05     5     1     2     3
 2.2100000000e-08     5     1     2     4
 8.7797716400e-02     5     1     2     5
 1.3296000000e-05     5     1     3     2
 1.9113250000e-04     5     1     3     3
-1.3800000000e-08     5     1     3     4
-4.0006189600e-02     5     1     3     5
 4.8800000000e-08     5     1     4     2
 1.3400000000e-08     5     1     4     3
 1.9324080000e-04     5     1     4     4
 8.5711500000e-05     5     1     4     5
-1.7258680000e-04     5     2     1     1
 4.9492000000e-06     5     2     1     3
-2.6700000000e-08     5     2     1     4
 8.7797716400e-02     5     2     1     5
 4.6640500000e-05     5     2     2     1
 6.6225900000e-05     5     2     2     3
-2.7120000000e-07     5     2     2     4
-2.3582463900e-01     5     2     2     5
-1.3296000000e-05     5     2     3     1
-2.7787410000e-04     5     2     3     3
 1.1000000000e-08     5     2     3     4
 2.0936072600e-02     5     2     3     5
-4.8800000000e-08     5     2     4     1
-6.6000000000e-09     5     2     4     3
-2.8197270000e-04     5     2     4     4
-1.5697770000e-04     5     2     4     5
-1.0970100000e-05     5     3     1     1
-4.9492000000e-06     5     3     1     2
-2.7200000000e-08     5     3     1     4
-4.0006189600e-02     5     3     1     5
-1.8245200000e-05     5     3     2     1
-6.6225900000e-05     5     3     2     2
 1.7600000000e-08     5     3     2     4
 2.0936072600e-02     5     3     2     5
-1.9113250000e-04     5     3     3     1
 2.7787410000e-04     5     3     3     2
-3.7900000000e-08     5     3     3     4
-3.2488446050e-01     5     3     3     5
-1.3400000000e-08     5     3     4     1
 6.6000000000e-09     5     3     4     2
-8.1344000000e-06     5     3     4     4
-4.4318000000e-06     5     3     4     5
-2.8100000000e-08     5     4     1     1
 2.6700000000e-08     5     4     1     2
 2.7200000000e-08     5     4     1     3
 8.5711500000e-05     5     4     1     5
-2.2100000000e-08     5     4     2     1
 2.7120000000e-07     5     4     2     2
-1.7600000000e-08     5     4     2     3
-1.5697770000e-04     5     4     2     5
 1.3800000000e-08     5     4     3     1
-1.1000000000e-08     5     4     3     2
 3.7900000000e-08     5     4     3     3
-4.4318000000e-06     5     4     3     5
-1.9324080000e-04     5     4     4     1
 2.8197270000e-04     5     4     4     2
 8.1344000000e-06     5     4     4     3
-3.2841130300e-01     5     4     4     5
 2.8922270590e-01     5     5     1     1
-8.7797716400e-02     5     5     1     2
 4.0006189600e-02     5     5     1     3
-8.5711500000e-05     5     5     1     4
-8.7797716400e-02     5     5     2     1
 2.3582463900e-01     5     5     2     2
-2.0936072600e-02     5     5     2     3
 1.5697770000e-04     5     5     2     4
 4.0006189600e-02     5     5     3     1
-2.0936072600e-02     5     5     3     2
 3.2488446050e-01     5     5     3     3
 4.4318000000e-06     5     5     3     4
-8.5711500000e-05     5     5     4     1
 1.5697770000e-04     5     5     4     2
 4.4318000000e-06     5     5     4     3
 3.2841130300e-01     5     5     4     4
0.0 0 0 0 0
 1.7485790260e-01     1     1     2     2
-9.9802033000e-03     1     1     2     3
 9.8497200000e-05     1     1     2     4
-1.7258680000e-04     1     1     2     5
-9.9802033000e-03     1     1     3     2
 2.8402059770e-01     1     1     3     3
 4.5583000000e-06     1     1     3     4
-1.0970100000e-05     1     1     3     5
 9.8497200000e-05     1     1     4     2
 4.5583000000e-06     1     1     4     3
 2.8923800500e-01     1     1     4     4
-2.8100000000e-08     1     1     4     5
-1.7258680000e-04     1     1     5     2
-1.0970100000e-05     1     1     5     3
-2.8100000000e-08     1     1     5     4
 2.8922270590e-01     1     1     5     5
-1.7485790260e-01     1     2     2     1
-1.8777208600e-02     1     2     2     3
-4.4892100000e-05     1     2     2     4
 4.6640500000e-05     1     2     2     5
 9.9802033000e-03     1     2     3     1
-8.8301215200e-02     1     2     3     3
 9.3188000000e-06     1     2     3     4
-1.8245200000e-05     1     2     3     5
-9.8497200000e-05     1     2     4     1
 9.7600000000e-07     1     2     4     3
-8.7805732100e-02     1     2     4     4
-2.2100000000e-08     1     2     4     5
 1.7258680000e-04     1     2     5     1
-4.9492000000e-06     1     2     5     3
 2.6700000000e-08     1     2     5     4
-8.7797716400e-02     1     2     5     5
 9.9802033000e-03     1     3     2     1
 1.8777208600e-02     1     3     2     2
 8.3428000000e-06     1     3     2     4
-1.3296000000e-05     1     3     2     5
-2.8402059770e-01     1     3     3     1
 8.8301215200e-02     1     3     3     2
 8.4863000000e-05     1     3     3     4
-1.9113250000e-04     1     3     3     5
-4.5583000000e-06     1     3     4     1
-9.7600000000e-07     1     3     4     2
 4.0007441200e-02     1     3     4     4
 1.3800000000e-08     1     3     4     5
 1.0970100000e-05     1     3     5     1
 4.9492000000e-06     1     3     5     2
 2.7200000000e-08     1     3     5     4
 4.0006189600e-02     1     3     5     5
-9.8497200000e-05     1     4     2     1
 4.4892100000e-05     1     4     2     2
-8.3428000000e-06     1     4     2     3
-4.8800000000e-08     1     4     2     5
-4.5583000000e-06     1     4     3     1
-9.3188000000e-06     1     4     3     2
-8.4863000000e-05     1     4     3     3
-1.3400000000e-08     1     4     3     5
-2.8923800500e-01     1     4     4     1
 8.7805732100e-02     1     4     4     2
-4.0007441200e-02     1     4     4     3
-1.9324080000e-04     1     4     4     5
 2.8100000000e-08     1     4     5     1
-2.6700000000e-08     1     4     5     2
-2.7200000000e-08     1     4     5     3
-8.5711500000e-05     1     4     5     5
 1.7258680000e-04     1     5     2     1
-4.6640500000e-05     1     5     2     2
 1.3296000000e-05     1     5     2     3
 4.8800000000e-08     1     5     2     4
 1.0970100000e-05     1     5     3     1
 1.8245200000e-05     1     5     3     2
 1.9113250000e-04     1     5     3     3
 1.3400000000e-08     1     5     3     4
 2.8100000000e-08     1     5     4     1
 2.2100000000e-08     1     5     4     2
-1.3800000000e-08     1     5     4     3
 1.9324080000e-04     1     5     4     4
-2.8922270590e-01     1     5     5     1
 8.7797716400e-02     1     5     5     2
-4.0006189600e-02     1     5     5     3
 8.5711500000e-05     1     5     5     4
-1.7485790260e-01     2     1     1     2
 9.9802033000e-03     2     1     1     3
-9.8497200000e-05     2     1     1     4
 1.7258680000e-04     2     1     1     5
-1.8777208600e-02     2     1     3     2
-8.8301215200e-02     2     1     3     3
 9.7600000000e-07     2     1     3     4
-4.9492000000e-06     2     1     3     5
-4.4892100000e-05     2     1     4     2
 9.3188000000e-06     2     1     4     3
-8.7805732100e-02     2     1     4     4
 2.6700000000e-08     2     1     4     5
 4.6640500000e-05     2     1     5     2
-1.8245200000e-05     2     1     5     3
-2.2100000000e-08     2     1     5     4
-8.7797716400e-02     2     1     5     5
 1.7485790260e-01     2     2     1     1
 1.8777208600e-02     2     2     1     3
 4.4892100000e-05     2     2     1     4
-4.6640500000e-05     2     2     1     5
 1.8777208600e-02     2     2     3     1
 2.2809156850e-01     2     2     3     3
 3.5422100000e-05     2     2     3     4
-6.6225900000e-05     2     2     3     5
 4.4892100000e-05     2     2     4     1
 3.5422100000e-05     2     2     4     3
 2.3583175150e-01     2     2     4     4
 2.7120000000e-07     2     2     4     5
-4.6640500000e-05     2     2     5     1
-6.6225900000e-05     2     2     5     3
 2.7120000000e-07     2     2     5     4
 2.3582463900e-01     2     2     5     5
-9.9802033000e-03     2     3     1     1
-1.8777208600e-02     2     3     1     2
-8.3428000000e-06     2     3     1     4
 1.3296000000e-05     2     3     1     5
 8.8301215200e-02     2     3     3     1
-2.2809156850e-01     2     3     3     2
-1.5502310000e-04     2     3     3     4
 2.7787410000e-04     2     3     3     5
-9.3188000000e-06     2     3     4     1
-3.5422100000e-05     2     3     4     2
-2.0938589600e-02     2     3     4     4
-1.1000000000e-08     2     3     4     5
 1.8245200000e-05     2     3     5     1
 6.6225900000e-05     2     3     5     2
-1.7600000000e-08     2     3     5     4
-2.0936072600e-02     2     3     5     5
 9.8497200000e-05     2     4     1     1
-4.4892100000e-05     2     4     1     2
 8.3428000000e-06     2     4     1     3
 4.8800000000e-08     2     4     1     5
-9.7600000000e-07     2     4     3     1
-3.5422100000e-05     2     4     3     2
 1.5502310000e-04     2     4     3     3
 6.6000000000e-09     2     4     3     5
 8.7805732100e-02     2     4     4     1
-2.3583175150e-01     2     4     4     2
 2.0938589600e-02     2     4     4     3
 2.8197270000e-04     2     4     4     5
 2.2100000000e-08     2     4     5     1
-2.7120000000e-07     2     4     5     2
 1.7600000000e-08     2     4     5     3
 1.5697770000e-04     2     4     5     5
-1.7258680000e-04     2     5     1     1
 4.6640500000e-05     2     5     1     2
-1.3296000000e-05     2     5     1     3
-4.8800000000e-08     2     5     1     4
 4.9492000000e-06     2     5     3     1
 6.6225900000e-05     2     5     3     2
-2.7787410000e-04     2     5     3     3
-6.6000000000e-09     2     5     3     4
-2.6700000000e-08     2     5     4     1
-2.7120000000e-07     2     5     4     2
 1.1000000000e-08     2     5     4     3
-2.8197270000e-04     2     5     4     4
 8.7797716400e-02     2     5     5     1
-2.3582463900e-01     2     5     5     2
 2.0936072600e-02     2     5     5     3
-1.5697770000e-04     2     5     5     4
 9.9802033000e-03     3     1     1     2
-2.8402059770e-01     3     1     1     3
-4.5583000000e-06     3     1     1     4
 1.0970100000e-05     3     1     1     5
 1.8777208600e-02     3     1     2     2
 8.8301215200e-02     3     1     2     3
-9.7600000000e-07     3     1     2     4
 4.9492000000e-06     3     1     2     5
 8.3428000000e-06     3     1     4     2
 8.4863000000e-05     3     1     4     3
 4.0007441200e-02     3     1     4     4
 2.7200000000e-08     3     1     4     5
-1.3296000000e-05     3     1     5     2
-1.9113250000e-04     3     1     5     3
 1.3800000000e-08     3     1     5     4
 4.0006189600e-02     3     1     5     5
-9.9802033000e-03     3     2     1     1
 8.8301215200e-02     3     2     1     3
-9.3188000000e-06     3     2     1     4
 1.8245200000e-05     3     2     1     5
-1.8777208600e-02     3     2     2     1
-2.2809156850e-01     3     2     2     3
-3.5422100000e-05     3     2     2     4
 6.6225900000e-05     3     2     2     5
-8.3428000000e-06     3     2     4     1
-1.5502310000e-04     3     2     4     3
-2.0938589600e-02     3     2     4     4
-1.7600000000e-08     3     2     4     5
 1.3296000000e-05     3     2     5     1
 2.7787410000e-04     3     2     5     3
-1.1000000000e-08     3     2     5     4
-2.0936072600e-02     3     2     5     5
 2.8402059770e-01     3     3     1     1
-8.8301215200e-02     3     3     1     2
-8.4863000000e-05     3     3     1     4
 1.9113250000e-04     3     3     1     5
-8.8301215200e-02     3     3     2     1
 2.2809156850e-01     3     3     2     2
 1.5502310000e-04     3     3     2     4
-2.7787410000e-04     3     3     2     5
-8.4863000000e-05     3     3     4     1
 1.5502310000e-04     3     3     4     2
 3.2490235050e-01     3     3     4     4
 3.7900000000e-08     3     3     4     5
 1.9113250000e-04     3     3     5     1
-2.7787410000e-04     3     3     5     2
 3.7900000000e-08     3     3     5     4
 3.2488446050e-01     3     3     5     5
 4.5583000000e-06     3     4     1     1
 9.3188000000e-06     3     4     1     2
 8.4863000000e-05     3     4     1     3
 1.3400000000e-08     3     4     1     5
 9.7600000000e-07     3     4     2     1
 3.5422100000e-05     3     4     2     2
-1.5502310000e-04     3     4     2     3
-6.6000000000e-09     3     4     2     5
-4.0007441200e-02     3     4     4     1
 2.0938589600e-02     3     4     4     2
-3.2490235050e-01     3     4     4     3
 8.1344000000e-06     3     4     4     5
-1.3800000000e-08     3     4     5     1
 1.1000000000e-08     3     4     5     2
-3.7900000000e-08     3     4     5     3
 4.4318000000e-06     3     4     5     5
-1.0970100000e-05     3     5     1     1
-1.8245200000e-05     3     5     1     2
-1.9113250000e-04     3     5     1     3
-1.3400000000e-08     3     5     1     4
-4.9492000000e-06     3     5     2     1
-6.6225900000e-05     3     5     2     2
 2.7787410000e-04     3     5     2     3
 6.6000000000e-09     3     5     2     4
-2.7200000000e-08     3     5     4     1
 1.7600000000e-08     3     5     4     2
-3.7900000000e-08     3     5     4     3
-8.1344000000e-06     3     5     4     4
-4.0006189600e-02     3     5     5     1
 2.0936072600e-02     3     5     5     2
-3.2488446050e-01     3     5     5     3
-4.4318000000e-06     3     5     5     4
-9.8497200000e-05     4     1     1     2
-4.5583000000e-06     4     1     1     3
-2.8923800500e-01     4     1     1     4
 2.8100000000e-08     4     1     1     5
 4.4892100000e-05     4     1     2     2
-9.3188000000e-06     4     1     2     3
 8.7805732100e-02     4     1     2     4
-2.6700000000e-08     4     1     2     5
-8.3428000000e-06     4     1     3     2
-8.4863000000e-05     4     1     3     3
-4.0007441200e-02     4     1     3     4
-2.7200000000e-08     4     1     3     5
-4.8800000000e-08     4     1     5     2
-1.3400000000e-08     4     1     5     3
-1.9324080000e-04     4     1     5     4
-8.5711500000e-05     4     1     5     5
 9.8497200000e-05     4     2     1     1
-9.7600000000e-07     4     2     1     3
 8.7805732100e-02     4     2     1     4
 2.2100000000e-08     4     2     1     5
-4.4892100000e-05     4     2     2     1
-3.5422100000e-05     4     2     2     3
-2.3583175150e-01     4     2     2     4
-2.7120000000e-07     4     2     2     5
 8.3428000000e-06     4     2     3     1
 1.5502310000e-04     4     2     3     3
 2.0938589600e-02     4     2     3     4
 1.7600000000e-08     4     2     3     5
 4.8800000000e-08     4     2     5     1
 6.6000000000e-09     4     2     5     3
 2.8197270000e-04     4     2     5     4
 1.5697770000e-04     4     2     5     5
 4.5583000000e-06     4     3     1     1
 9.7600000000e-07     4     3     1     2
-4.0007441200e-02     4     3     1     4
-1.3800000000e-08     4     3     1     5
 9.3188000000e-06     4     3     2     1
 3.5422100000e-05     4     3     2     2
 2.0938589600e-02     4     3     2     4
 1.1000000000e-08     4     3     2     5
 8.4863000000e-05     4     3     3     1
-1.5502310000e-04     4     3     3     2
-3.2490235050e-01     4     3     3     4
-3.7900000000e-08     4     3     3     5
 1.3400000000e-08     4     3     5     1
-6.6000000000e-09     4     3     5     2
 8.1344000000e-06     4     3     5     4
 4.4318000000e-06     4     3     5     5
 2.8923800500e-01     4     4     1     1
-8.7805732100e-02     4     4     1     2
 4.0007441200e-02     4     4     1     3
 1.9324080000e-04     4     4     1     5
-8.7805732100e-02     4     4     2     1
 2.3583175150e-01     4     4     2     2
-2.0938589600e-02     4     4     2     3
-2.8197270000e-04     4     4     2     5
 4.0007441200e-02     4     4     3     1
-2.0938589600e-02     4     4     3     2
 3.2490235050e-01     4     4     3     3
-8.1344000000e-06     4     4     3     5
 1.9324080000e-04     4     4     5     1
-2.8197270000e-04     4     4     5     2
-8.1344000000e-06     4     4     5     3
 3.2841130300e-01     4     4     5     5
-2.8100000000e-08     4     5     1     1
-2.2100000000e-08     4     5     1     2
 1.3800000000e-08     4     5     1     3
-1.9324080000e-04     4     5     1     4
 2.6700000000e-08     4     5     2     1
 2.7120000000e-07     4     5     2     2
-1.1000000000e-08     4     5     2     3
 2.8197270000e-04     4     5     2     4