&FCI NORB=  5,NELEC=  2,MS2=0,
 ORBSYM=1,1,1,1,1
 ISYM=1,
&END
 2.3137573000e-01     1     1     2     2
-1.4880094000e-03     1     1     2     3
-7.3005000000e-06     1     1     2     4
-3.0289000000e-06     1     1     2     5
-1.4880094000e-03     1     1     3     2
 2.9648193320e-01     1     1     3     3
-3.8522000000e-06     1     1     3     4
 1.7833000000e-06     1     1     3     5
-7.3005000000e-06     1     1     4     2
-3.8522000000e-06     1     1     4     3
 2.9904121230e-01     1     1     4     4
-1.9800000000e-08     1     1     4     5
-3.0289000000e-06     1     1     5     2
 1.7833000000e-06     1     1     5     3
-1.9800000000e-08     1     1     5     4
 2.9903579290e-01     1     1     5     5
-2.3137573000e-01     1     2     2     1
 3.4536253500e-02     1     2     2     3
 1.5752580000e-04     1     2     2     4
-7.3461400000e-05     1     2     2     5
 1.4880094000e-03     1     2     3     1
-8.0889142700e-02     1     2     3     3
-1.3208600000e-05     1     2     3     4
 7.5618000000e-06     1     2     3     5
 7.3005000000e-06     1     2     4     1
-1.3564200000e-05     1     2     4     3
-7.8951165800e-02     1     2     4     4
 5.7000000000e-08     1     2     4     5
 3.0289000000e-06     1     2     5     1
 7.0193000000e-06     1     2     5     3
 4.2900000000e-08     1     2     5     4
-7.8948199800e-02     1     2     5     5
 1.4880094000e-03     1     3     2     1
-3.4536253500e-02     1     3     2     2
 3.5560000000e-07     1     3     2     4
 5.4250000000e-07     1     3     2     5
-2.9648193320e-01     1     3     3     1
 8.0889142700e-02     1     3     3     2
 1.8697740000e-04     1     3     3     4
-9.4090800000e-05     1     3     3     5
 3.8522000000e-06     1     3     4     1
 1.3564200000e-05     1     3     4     2
-4.1625609900e-02     1     3     4     4
-5.1000000000e-09     1     3     4     5
-1.7833000000e-06     1     3     5     1
-7.0193000000e-06     1     3     5     2
-1.0000000000e-09     1     3     5     4
-4.1625375200e-02     1     3     5     5
 7.3005000000e-06     1     4     2     1
-1.5752580000e-04     1     4     2     2
-3.5560000000e-07     1     4     2     3
 1.4100000000e-08     1     4     2     5
 3.8522000000e-06     1     4     3     1
 1.3208600000e-05     1     4     3     2
-1.8697740000e-04     1     4     3     3
-4.1000000000e-09     1     4     3     5
-2.9904121230e-01     1     4     4     1
 7.8951165800e-02     1     4     4     2
 4.1625609900e-02     1     4     4     3
-9.4357200000e-05     1     4     4     5
 1.9800000000e-08     1     4     5     1
-4.2900000000e-08     1     4     5     2
 1.0000000000e-09     1     4     5     3
-1.8752720000e-04     1     4     5     5
 3.0289000000e-06     1     5     2     1
 7.3461400000e-05     1     5     2     2
-5.4250000000e-07     1     5     2     3
-1.4100000000e-08     1     5     2     4
-1.7833000000e-06     1     5     3     1
-7.5618000000e-06     1     5     3     2
 9.4090800000e-05     1     5     3     3
 4.1000000000e-09     1     5     3     4
 1.9800000000e-08     1     5     4     1
-5.7000000000e-08     1     5     4     2
 5.1000000000e-09     1     5     4     3
 9.4357200000e-05     1     5     4     4
-2.9903579290e-01     1     5     5     1
 7.8948199800e-02     1     5     5     2
 4.1625375200e-02     1     5     5     3
 1.8752720000e-04     1     5     5     4
-2.3137573000e-01     2     1     1     2
 1.4880094000e-03     2     1     1     3
 7.3005000000e-06     2     1     1     4
 3.0289000000e-06     2     1     1     5
 3.4536253500e-02     2     1     3     2
-8.0889142700e-02     2     1     3     3
-1.3564200000e-05     2     1     3     4
 7.0193000000e-06     2     1     3     5
 1.5752580000e-04     2     1     4     2
-1.3208600000e-05     2     1     4     3
-7.8951165800e-02     2     1     4     4
 4.2900000000e-08     2     1     4     5
-7.3461400000e-05     2     1     5     2
 7.5618000000e-06     2     1     5     3
 5.7000000000e-08     2     1     5     4
-7.8948199800e-02     2     1     5     5
 2.3137573000e-01     2     2     1     1
-3.4536253500e-02     2     2     1     3
-1.5752580000e-04     2     2     1     4
 7.3461400000e-05     2     2     1     5
-3.4536253500e-02     2     2     3     1
 2.8604228680e-01     2     2     3     3
-2.1560000000e-06     2     2     3     4
 2.1699000000e-06     2     2     3     5
-1.5752580000e-04     2     2     4     1
-2.1560000000e-06     2     2     4     3
 2.8792922680e-01     2     2     4     4
-1.1500000000e-08     2     2     4     5
 7.3461400000e-05     2     2     5     1
 2.1699000000e-06     2     2     5     3
-1.1500000000e-08     2     2     5     4
 2.8792500400e-01     2     2     5     5
-1.4880094000e-03     2     3     1     1
 3.4536253500e-02     2     3     1     2
-3.5560000000e-07     2     3     1     4
-5.4250000000e-07     2     3     1     5
 8.0889142700e-02     2     3     3     1
-2.8604228680e-01     2     3     3     2
-1.1211900000e-05     2     3     3     4
 1.3759100000e-05     2     3     3     5
 1.3208600000e-05     2     3     4     1
 2.1560000000e-06     2     3     4     2
 2.9389242000e-03     2     3     4     4
 5.0000000000e-10     2     3     4     5
-7.5618000000e-06     2     3     5     1
-2.1699000000e-06     2     3     5     2
-3.4000000000e-09     2     3     5     4
 2.9384698000e-03     2     3     5     5
-7.3005000000e-06     2     4     1     1
 1.5752580000e-04     2     4     1     2
 3.5560000000e-07     2     4     1     3
-1.4100000000e-08     2     4     1     5
 1.3564200000e-05     2     4     3     1
 2.1560000000e-06     2     4     3     2
 1.1211900000e-05     2     4     3     3
 3.9000000000e-09     2     4     3     5
 7.8951165800e-02     2     4     4     1
-2.8792922680e-01     2     4     4     2
-2.9389242000e-03     2     4     4     3
 1.4157200000e-05     2     4     4     5
-5.7000000000e-08     2     4     5     1
 1.1500000000e-08     2     4     5     2
 3.4000000000e-09     2     4     5     3
 1.2376100000e-05     2     4     5     5
-3.0289000000e-06     2     5     1     1
-7.3461400000e-05     2     5     1     2
 5.4250000000e-07     2     5     1     3
 1.4100000000e-08     2     5     1     4
-7.0193000000e-06     2     5     3     1
-2.1699000000e-06     2     5     3     2
-1.3759100000e-05     2     5     3     3
-3.9000000000e-09     2     5     3     4
-4.2900000000e-08     2     5     4     1
 1.1500000000e-08     2     5     4     2
-5.0000000000e-10     2     5     4     3
-1.4157200000e-05     2     5     4     4
 7.8948199800e-02     2     5     5     1
-2.8792500400e-01     2     5     5     2
-2.9384698000e-03     2     5     5     3
-1.2376100000e-05     2     5     5     4
 1.4880094000e-03     3     1     1     2
-2.9648193320e-01     3     1     1     3
 3.8522000000e-06     3     1     1     4
-1.7833000000e-06     3     1     1     5
-3.4536253500e-02     3     1     2     2
 8.0889142700e-02     3     1     2     3
 1.3564200000e-05     3     1     2     4
-7.0193000000e-06     3     1     2     5
 3.5560000000e-07     3     1     4     2
 1.8697740000e-04     3     1     4     3
-4.1625609900e-02     3     1     4     4
-1.0000000000e-09     3     1     4     5
 5.4250000000e-07     3     1     5     2
-9.4090800000e-05     3     1     5     3
-5.1000000000e-09     3     1     5     4
-4.1625375200e-02     3     1     5     5
-1.4880094000e-03     3     2     1     1
 8.0889142700e-02     3     2     1     3
 1.3208600000e-05     3     2     1     4
-7.5618000000e-06     3     2     1     5
 3.4536253500e-02     3     2     2     1
-2.8604228680e-01     3     2     2     3
 2.1560000000e-06     3     2     2     4
-2.1699000000e-06     3     2     2     5
-3.5560000000e-07     3     2     4     1
-1.1211900000e-05     3     2     4     3
 2.9389242000e-03     3     2     4     4
-3.4000000000e-09     3     2     4     5
-5.4250000000e-07     3     2     5     1
 1.3759100000e-05     3     2     5     3
 5.0000000000e-10     3     2     5     4
 2.9384698000e-03     3     2     5     5
 2.9648193320e-01     3     3     1     1
-8.0889142700e-02     3     3     1     2
-1.8697740000e-04     3     3     1     4
 9.4090800000e-05     3     3     1     5
-8.0889142700e-02     3     3     2     1
 2.8604228680e-01     3     3     2     2
 1.1211900000e-05     3     3     2     4
-1.3759100000e-05     3     3     2     5
-1.8697740000e-04     3     3     4     1
 1.1211900000e-05     3     3     4     2
 3.2583915160e-01     3     3     4     4
-4.0100000000e-08     3     3     4     5
 9.4090800000e-05     3     3     5     1
-1.3759100000e-05     3     3     5     2
-4.0100000000e-08     3     3     5     4
 3.2583330430e-01     3     3     5     5
-3.8522000000e-06     3     4     1     1
-1.3208600000e-05     3     4     1     2
 1.8697740000e-04     3     4     1     3
 4.1000000000e-09     3     4     1     5
-1.3564200000e-05     3     4     2     1
-2.1560000000e-06     3     4     2     2
-1.1211900000e-05     3     4     2     3
-3.9000000000e-09     3     4     2     5
 4.1625609900e-02     3     4     4     1
-2.9389242000e-03     3     4     4     2
-3.2583915160e-01     3     4     4     3
 2.6796000000e-06     3     4     4     5
 5.1000000000e-09     3     4     5     1
-5.0000000000e-10     3     4     5     2
 4.0100000000e-08     3     4     5     3
 5.1403000000e-06     3     4     5     5
 1.7833000000e-06     3     5     1     1
 7.5618000000e-06     3     5     1     2
-9.4090800000e-05     3     5     1     3
-4.1000000000e-09     3     5     1     4
 7.0193000000e-06     3     5     2     1
 2.1699000000e-06     3     5     2     2
 1.3759100000e-05     3     5     2     3
 3.9000000000e-09     3     5     2     4
 1.0000000000e-09     3     5     4     1
 3.4000000000e-09     3     5     4     2
 4.0100000000e-08     3     5     4     3
-2.6796000000e-06     3     5     4     4
 4.1625375200e-02     3     5     5     1
-2.9384698000e-03     3     5     5     2
-3.2583330430e-01     3     5     5     3
-5.1403000000e-06     3     5     5     4
 7.3005000000e-06     4     1     1     2
 3.8522000000e-06     4     1     1     3
-2.9904121230e-01     4     1     1     4
 1.9800000000e-08     4     1     1     5
-1.5752580000e-04     4     1     2     2
 1.3208600000e-05     4     1     2     3
 7.8951165800e-02     4     1     2     4
-4.2900000000e-08     4     1     2     5
-3.5560000000e-07     4     1     3     2
-1.8697740000e-04     4     1     3     3
 4.1625609900e-02     4     1     3     4
 1.0000000000e-09     4     1     3     5
 1.4100000000e-08     4     1     5     2
-4.1000000000e-09     4     1     5     3
-9.4357200000e-05     4     1     5     4
-1.8752720000e-04     4     1     5     5
-7.3005000000e-06     4     2     1     1
 1.3564200000e-05     4     2     1     3
 7.8951165800e-02     4     2     1     4
-5.7000000000e-08     4     2     1     5
 1.5752580000e-04     4     2     2     1
 2.1560000000e-06     4     2     2     3
-2.8792922680e-01     4     2     2     4
 1.1500000000e-08     4     2     2     5
 3.5560000000e-07     4     2     3     1
 1.1211900000e-05     4     2     3     3
-2.9389242000e-03     4     2     3     4
 3.4000000000e-09     4     2     3     5
-1.4100000000e-08     4     2     5     1
 3.9000000000e-09     4     2     5     3
 1.4157200000e-05     4     2     5     4
 1.2376100000e-05     4     2     5     5
-3.8522000000e-06     4     3     1     1
-1.3564200000e-05     4     3     1     2
 4.1625609900e-02     4     3     1     4
 5.1000000000e-09     4     3     1     5
-1.3208600000e-05     4     3     2     1
-2.1560000000e-06     4     3     2     2
-2.9389242000e-03     4     3     2     4
-5.0000000000e-10     4     3     2     5
 1.8697740000e-04     4     3     3     1
-1.1211900000e-05     4     3     3     2
-3.2583915160e-01     4     3     3     4
 4.0100000000e-08     4     3     3     5
 4.1000000000e-09     4     3     5     1
-3.9000000000e-09     4     3     5     2
 2.6796000000e-06     4     3     5     4
 5.1403000000e-06     4     3     5     5
 2.9904121230e-01     4     4     1     1
-7.8951165800e-02     4     4     1     2
-4.1625609900e-02     4     4     1     3
 9.4357200000e-05     4     4     1     5
-7.8951165800e-02     4     4     2     1
 2.8792922680e-01     4     4     2     2
 2.9389242000e-03     4     4     2     3
-1.4157200000e-05     4     4     2     5
-4.1625609900e-02     4     4     3     1
 2.9389242000e-03     4     4     3     2
 3.2583915160e-01     4     4     3     3
-2.6796000000e-06     4     4     3     5
 9.4357200000e-05     4     4     5     1
-1.4157200000e-05     4     4     5     2
-2.6796000000e-06     4     4     5     3
 3.2638175800e-01     4     4     5     5
-1.9800000000e-08     4     5     1     1
 5.7000000000e-08     4     5     1     2
-5.1000000000e-09     4     5     1     3
-9.4357200000e-05     4     5     1     4
 4.2900000000e-08     4     5     2     1
-1.1500000000e-08     4     5     2     2
 5.0000000000e-10     4     5     2     3
 1.4157200000e-05     4     5     2     4
-1.0000000000e-09     4     5     3     1
-3.4000000000e-09     4     5     3     2
-4.0100000000e-08     4     5     3     3
 2.6796000000e-06     4     5     3     4
 1.8752720000e-04     4     5     5     1
-1.2376100000e-05     4     5     5     2
-5.1403000000e-06     4     5     5     3
-3.2638175800e-01     4     5     5     4
 3.0289000000e-06     5     1     1     2
-1.7833000000e-06     5     1     1     3
 1.9800000000e-08     5     1     1     4
-2.9903579290e-01     5     1     1     5
 7.3461400000e-05     5     1     2     2
-7.5618000000e-06     5     1     2     3
-5.7000000000e-08     5     1     2     4
 7.8948199800e-02     5     1     2     5
-5.4250000000e-07     5     1     3     2
 9.4090800000e-05     5     1     3     3
 5.1000000000e-09     5     1     3     4
 4.1625375200e-02     5     1     3     5
-1.4100000000e-08     5     1     4     2
 4.1000000000e-09     5     1     4     3
 9.4357200000e-05     5     1     4     4
 1.8752720000e-04     5     1     4     5
-3.0289000000e-06     5     2     1     1
-7.0193000000e-06     5     2     1     3
-4.2900000000e-08     5     2     1     4
 7.8948199800e-02     5     2     1     5
-7.3461400000e-05     5     2     2     1
-2.1699000000e-06     5     2     2     3
 1.1500000000e-08     5     2     2     4
-2.8792500400e-01     5     2     2     5
 5.4250000000e-07     5     2     3     1
-1.3759100000e-05     5     2     3     3
-5.0000000000e-10     5     2     3     4
-2.9384698000e-03     5     2     3     5
 1.4100000000e-08     5     2     4     1
-3.9000000000e-09     5     2     4     3
-1.4157200000e-05     5     2     4     4
-1.2376100000e-05     5     2     4     5
 1.7833000000e-06     5     3     1     1
 7.0193000000e-06     5     3     1     2
 1.0000000000e-09     5     3     1     4
 4.1625375200e-02     5     3     1     5
 7.5618000000e-06     5     3     2     1
 2.1699000000e-06     5     3     2     2
 3.4000000000e-09     5     3     2     4
-2.9384698000e-03     5     3     2     5
-9.4090800000e-05     5     3     3     1
 1.3759100000e-05     5     3     3     2
 4.0100000000e-08     5     3     3     4
-3.2583330430e-01     5     3     3     5
-4.1000000000e-09     5     3     4     1
 3.9000000000e-09     5     3     4     2
-2.6796000000e-06     5     3     4     4
-5.1403000000e-06     5     3     4     5
-1.9800000000e-08     5     4     1     1
 4.2900000000e-08     5     4     1     2
-1.0000000000e-09     5     4     1     3
 1.8752720000e-04     5     4     1     5
 5.7000000000e-08     5     4     2     1
-1.1500000000e-08     5     4     2     2
-3.4000000000e-09     5     4     2     3
-1.2376100000e-05     5     4     2     5
-5.1000000000e-09     5     4     3     1
 5.0000000000e-10     5     4     3     2
-4.0100000000e-08     5     4     3     3
-5.1403000000e-06     5     4     3     5
-9.4357200000e-05     5     4     4     1
 1.4157200000e-05     5     4     4     2
 2.6796000000e-06     5     4     4     3
-3.2638175800e-01     5     4     4     5
 2.9903579290e-01     5     5     1     1
-7.8948199800e-02     5     5     1     2
-4.1625375200e-02     5     5     1     3
-1.8752720000e-04     5     5     1     4
-7.8948199800e-02     5     5     2     1
 2.8792500400e-01     5     5     2     2
 2.9384698000e-03     5     5     2     3
 1.2376100000e-05     5     5     2     4
-4.1625375200e-02     5     5     3     1
 2.9384698000e-03     5     5     3     2
 3.2583330430e-01     5     5     3     3
 5.1403000000e-06     5     5     3     4
-1.8752720000e-04     5     5     4     1
 1.2376100000e-05     5     5     4     2
 5.1403000000e-06     5     5     4     3
 3.2638175800e-01     5     5     4     4
0.0 0 0 0 0
 2.3137573000e-01     1     1     2     2
-1.4880094000e-03     1     1     2     3
-7.3005000000e-06     1     1     2     4
-3.0289000000e-06     1     1     2     5
-1.4880094000e-03     1     1     3     2
 2.9648193320e-01     1     1     3     3
-3.8522000000e-06     1     1     3     4
 1.7833000000e-06     1     1     3     5
-7.3005000000e-06     1     1     4     2
-3.8522000000e-06     1     1     4     3
 2.9904121230e-01     1     1     4     4
-1.9800000000e-08     1     1     4     5
-3.0289000000e-06     1     1     5     2
 1.7833000000e-06     1     1     5     3
-1.9800000000e-08     1     1     5     4
 2.9903579290e-01     1     1     5     5
-2.3137573000e-01     1     2     2     1
 3.4536253500e-02     1     2     2     3
 1.5752580000e-04     1     2     2     4
-7.3461400000e-05     1     2     2     5
 1.4880094000e-03     1     2     3     1
-8.0889142700e-02     1     2     3     3
-1.3208600000e-05     1     2     3     4
 7.5618000000e-06     1     2     3     5
 7.3005000000e-06     1     2     4     1
-1.3564200000e-05     1     2     4     3
-7.8951165800e-02     1     2     4     4
 5.7000000000e-08     1     2     4     5
 3.0289000000e-06     1     2     5     1
 7.0193000000e-06     1     2     5     3
 4.2900000000e-08     1     2     5     4
-7.8948199800e-02     1     2     5     5
 1.4880094000e-03     1     3     2     1
-3.4536253500e-02     1     3     2     2
 3.5560000000e-07     1     3     2     4
 5.4250000000e-07     1     3     2     5
-2.9648193320e-01     1     3     3     1
 8.0889142700e-02     1     3     3     2
 1.8697740000e-04     1     3     3     4
-9.4090800000e-05     1     3     3     5
 3.8522000000e-06     1     3     4     1
 1.3564200000e-05     1     3     4     2
-4.1625609900e-02     1     3     4     4
-5.1000000000e-09     1     3     4     5
-1.7833000000e-06     1     3     5     1
-7.0193000000e-06     1     3     5     2
-1.0000000000e-09     1     3     5     4
-4.1625375200e-02     1     3     5     5
 7.3005000000e-06     1     4     2     1
-1.5752580000e-04     1     4     2     2
-3.5560000000e-07     1     4     2     3
 1.4100000000e-08     1     4     2     5
 3.8522000000e-06     1     4     3     1
 1.3208600000e-05     1     4     3     2
-1.8697740000e-04     1     4     3     3
-4.1000000000e-09     1     4     3     5
-2.9904121230e-01     1     4     4     1
 7.8951165800e-02     1     4     4     2
 4.1625609900e-02     1     4     4     3
-9.4357200000e-05     1     4     4     5
 1.9800000000e-08     1     4     5     1
-4.2900000000e-08     1     4     5     2
 1.0000000000e-09     1     4     5     3
-1.8752720000e-04     1     4     5     5
 3.0289000000e-06     1     5     2     1
 7.3461400000e-05     1     5     2     2
-5.4250000000e-07     1     5     2     3
-1.4100000000e-08     1     5     2     4
-1.7833000000e-06     1     5     3     1
-7.5618000000e-06     1     5     3     2
 9.4090800000e-05     1     5     3     3
 4.1000000000e-09     1     5     3     4
 1.9800000000e-08     1     5     4     1
-5.7000000000e-08     1     5     4     2
 5.1000000000e-09     1     5     4     3
 9.4357200000e-05     1     5     4     4
-2.9903579290e-01     1     5     5     1
 7.8948199800e-02     1     5     5     2
 4.1625375200e-02     1     5     5     3
 1.8752720000e-04     1     5     5     4
-2.3137573000e-01     2     1     1     2
 1.4880094000e-03     2     1     1     3
 7.3005000000e-06     2     1     1     4
 3.0289000000e-06     2     1     1     5
 3.4536253500e-02     2     1     3     2
-8.0889142700e-02     2     1     3     3
-1.3564200000e-05     2     1     3     4
 7.0193000000e-06     2     1     3     5
 1.5752580000e-04     2     1     4     2
-1.3208600000e-05     2     1     4     3
-7.8951165800e-02     2     1     4     4
 4.2900000000e-08     2     1     4     5
-7.3461400000e-05     2     1     5     2
 7.5618000000e-06     2     1     5     3
 5.7000000000e-08     2     1     5     4
-7.8948199800e-02     2     1     5     5
 2.3137573000e-01     2     2     1     1
-3.4536253500e-02     2     2     1     3
-1.5752580000e-04     2     2     1     4
 7.3461400000e-05     2     2     1     5
-3.4536253500e-02     2     2     3     1
 2.8604228680e-01     2     2     3     3
-2.1560000000e-06     2     2     3     4
 2.1699000000e-06     2     2     3     5
-1.5752580000e-04     2     2     4     1
-2.1560000000e-06     2     2     4     3
 2.8792922680e-01     2     2     4     4
-1.1500000000e-08     2     2     4     5
 7.3461400000e-05     2     2     5     1
 2.1699000000e-06     2     2     5     3
-1.1500000000e-08     2     2     5     4
 2.8792500400e-01     2     2     5     5
-1.4880094000e-03     2     3     1     1
 3.4536253500e-02     2     3     1     2
-3.5560000000e-07     2     3     1     4
-5.4250000000e-07     2     3     1     5
 8.0889142700e-02     2     3     3     1
-2.8604228680e-01     2     3     3     2
-1.1211900000e-05     2     3     3     4
 1.3759100000e-05     2     3     3     5
 1.3208600000e-05     2     3     4     1
 2.1560000000e-06     2     3     4     2
 2.9389242000e-03     2     3     4     4
 5.0000000000e-10     2     3     4     5
-7.5618000000e-06     2     3     5     1
-2.1699000000e-06     2     3     5     2
-3.4000000000e-09     2     3     5     4
 2.9384698000e-03     2     3     5     5
-7.3005000000e-06     2     4     1     1
 1.5752580000e-04     2     4     1     2
 3.5560000000e-07     2     4     1     3
-1.4100000000e-08     2     4     1     5
 1.3564200000e-05     2     4     3     1
 2.1560000000e-06     2     4     3     2
 1.1211900000e-05     2     4     3     3
 3.9000000000e-09     2     4     3     5
 7.8951165800e-02     2     4     4     1
-2.8792922680e-01     2     4     4     2
-2.9389242000e-03     2     4     4     3
 1.4157200000e-05     2     4     4     5
-5.7000000000e-08     2     4     5     1
 1.1500000000e-08     2     4     5     2
 3.4000000000e-09     2     4     5     3
 1.2376100000e-05     2     4     5     5
-3.0289000000e-06     2     5     1     1
-7.3461400000e-05     2     5     1     2
 5.4250000000e-07     2     5     1     3
 1.4100000000e-08     2     5     1     4
-7.0193000000e-06     2     5     3     1
-2.1699000000e-06     2     5     3     2
-1.3759100000e-05     2     5     3     3
-3.9000000000e-09     2     5     3     4
-4.2900000000e-08     2     5     4     1
 1.1500000000e-08     2     5     4     2
-5.0000000000e-10     2     5     4     3
-1.4157200000e-05     2     5     4     4
 7.8948199800e-02     2     5     5     1
-2.8792500400e-01     2     5     5     2
-2.9384698000e-03     2     5     5     3
-1.2376100000e-05     2     5     5     4
 1.4880094000e-03     3     1     1     2
-2.9648193320e-01     3     1     1     3
 3.8522000000e-06     3     1     1     4
-1.7833000000e-06     3     1     1     5
-3.4536253500e-02     3     1     2     2
 8.0889142700e-02     3     1     2     3
 1.3564200000e-05     3     1     2     4
-7.0193000000e-06     3     1     2     5
 3.5560000000e-07     3     1     4     2
 1.8697740000e-04     3     1     4     3
-4.1625609900e-02     3     1     4     4
-1.0000000000e-09     3     1     4     5
 5.4250000000e-07     3     1     5     2
-9.4090800000e-05     3     1     5     3
-5.1000000000e-09     3     1     5     4
-4.1625375200e-02     3     1     5     5
-1.4880094000e-03     3     2     1     1
 8.0889142700e-02     3     2     1     3
 1.3208600000e-05     3     2     1     4
-7.5618000000e-06     3     2     1     5
 3.4536253500e-02     3     2     2     1
-2.8604228680e-01     3     2     2     3
 2.1560000000e-06     3     2     2     4
-2.1699000000e-06     3     2     2     5
-3.5560000000e-07     3     2     4     1
-1.1211900000e-05     3     2     4     3
 2.9389242000e-03     3     2     4     4
-3.4000000000e-09     3     2     4     5
-5.4250000000e-07     3     2     5     1
 1.3759100000e-05     3     2     5     3
 5.0000000000e-10     3     2     5     4
 2.9384698000e-03     3     2     5     5
 2.9648193320e-01     3     3     1     1
-8.0889142700e-02     3     3     1     2
-1.8697740000e-04     3     3     1     4
 9.4090800000e-05     3     3     1     5
-8.0889142700e-02     3     3     2     1
 2.8604228680e-01     3     3     2     2
 1.1211900000e-05     3     3     2     4
-1.3759100000e-05     3     3     2     5
-1.8697740000e-04     3     3     4     1
 1.1211900000e-05     3     3     4     2
 3.2583915160e-01     3     3     4     4
-4.0100000000e-08     3     3     4     5
 9.4090800000e-05     3     3     5     1
-1.3759100000e-05     3     3     5     2
-4.0100000000e-08     3     3     5     4
 3.2583330430e-01     3     3     5     5
-3.8522000000e-06     3     4     1     1
-1.3208600000e-05     3     4     1     2
 1.8697740000e-04     3     4     1     3
 4.1000000000e-09     3     4     1     5
-1.3564200000e-05     3     4     2     1
-2.1560000000e-06     3     4     2     2
-1.1211900000e-05     3     4     2     3
-3.9000000000e-09     3     4     2     5
 4.1625609900e-02     3     4     4     1
-2.9389242000e-03     3     4     4     2
-3.2583915160e-01     3     4     4     3
 2.6796000000e-06     3     4     4     5
 5.1000000000e-09     3     4     5     1
-5.0000000000e-10     3     4     5     2
 4.0100000000e-08     3     4     5     3
 5.1403000000e-06     3     4     5     5
 1.7833000000e-06     3     5     1     1
 7.5618000000e-06     3     5     1     2
-9.4090800000e-05     3     5     1     3
-4.1000000000e-09     3     5     1     4
 7.0193000000e-06     3     5     2     1
 2.1699000000e-06     3     5     2     2
 1.3759100000e-05     3     5     2     3
 3.9000000000e-09     3     5     2     4
 1.0000000000e-09     3     5     4     1
 3.4000000000e-09     3     5     4     2
 4.0100000000e-08     3     5     4     3
-2.6796000000e-06     3     5     4     4
 4.1625375200e-02     3     5     5     1
-2.9384698000e-03     3     5     5     2
-3.2583330430e-01     3     5     5     3
-5.1403000000e-06     3     5     5     4
 7.3005000000e-06     4     1     1     2
 3.8522000000e-06     4     1     1     3
-2.9904121230e-01     4     1     1     4
 1.9800000000e-08     4     1     1     5
-1.5752580000e-04     4     1     2     2
 1.3208600000e-05     4     1     2     3
 7.8951165800e-02     4     1     2     4
-4.2900000000e-08     4     1     2     5
-3.5560000000e-07     4     1     3     2
-1.8697740000e-04     4     1     3     3
 4.1625609900e-02     4     1     3     4
 1.0000000000e-09     4     1     3     5
 1.4100000000e-08     4     1     5     2
-4.1000000000e-09     4     1     5     3
-9.4357200000e-05     4     1     5     4
-1.8752720000e-04     4     1     5     5
-7.3005000000e-06     4     2     1     1
 1.3564200000e-05     4     2     1     3
 7.8951165800e-02     4     2     1     4
-5.7000000000e-08     4     2     1     5
 1.5752580000e-04     4     2     2     1
 2.1560000000e-06     4     2     2     3
-2.8792922680e-01     4     2     2     4
 1.1500000000e-08     4     2     2     5
 3.5560000000e-07     4     2     3     1
 1.1211900000e-05     4     2     3     3
-2.9389242000e-03     4     2     3     4
 3.4000000000e-09     4     2     3     5
-1.4100000000e-08     4     2     5     1
 3.9000000000e-09     4     2     5     3
 1.4157200000e-05     4     2     5     4
 1.2376100000e-05     4     2     5     5
-3.8522000000e-06     4     3     1     1
-1.3564200000e-05     4     3     1     2
 4.1625609900e-02     4     3     1     4
 5.1000000000e-09     4     3     1     5
-1.3208600000e-05     4     3     2     1
-2.1560000000e-06     4     3     2     2
-2.9389242000e-03     4     3     2     4
-5.0000000000e-10     4     3     2     5
 1.8697740000e-04     4     3     3     1
-1.1211900000e-05     4     3     3     2
-3.2583915160e-01     4     3     3     4
 4.0100000000e-08     4     3     3     5
 4.1000000000e-09     4     3     5     1
-3.9000000000e-09     4     3     5     2
 2.6796000000e-06     4     3     5     4
 5.1403000000e-06     4     3     5     5
 2.9904121230e-01     4     4     1     1
-7.8951165800e-02     4     4     1     2
-4.1625609900e-02     4     4     1     3
 9.4357200000e-05     4     4     1     5
-7.8951165800e-02     4     4     2     1
 2.8792922680e-01     4     4     2     2
 2.9389242000e-03     4     4     2     3
-1.4157200000e-05     4     4     2     5
-4.1625609900e-02     4     4     3     1
 2.9389242000e-03     4     4     3     2
 3.2583915160e-01     4     4     3     3
-2.6796000000e-06     4     4     3     5
 9.4357200000e-05     4     4     5     1
-1.4157200000e-05     4     4     5     2
-2.6796000000e-06     4     4     5     3
 3.2638175800e-01     4     4     5     5
-1.9800000000e-08     4     5     1     1
 5.7000000000e-08     4     5     1     2
-5.1000000000e-09     4     5     1     3
-9.4357200000e-05     4     5     1     4
 4.2900000000e-08     4     5     2     1
-1.1500000000e-08     4     5     2     2
 5.0000000000e-10     4     5     2     3
 1.4157200000e-05     4     5     2     4