&FCI NORB=  5,NELEC=  2,MS2=0,
 ORBSYM=1,1,1,1,1
 ISYM=1,
&END
 1.0034491470e-01     1     1     2     2
 3.1102978100e-02     1     1     2     3
 4.2634740000e-04     1     1     2     4
 2.9169000000e-06     1     1     2     5
 3.1102978100e-02     1     1     3     2
 2.5150400770e-01     1     1     3     3
-1.8537724000e-03     1     1     3     4
-1.4576900000e-05     1     1     3     5
 4.2634740000e-04     1     1     4     2
-1.8537724000e-03     1     1     4     3
 2.7666212650e-01     1     1     4     4
-2.4518200000e-05     1     1     4     5
 2.9169000000e-06     1     1     5     2
-1.4576900000e-05     1     1     5     3
-2.4518200000e-05     1     1     5     4
 2.8109086850e-01     1     1     5     5
-1.0034491470e-01     1     2     2     1
-1.7173867900e-02     1     2     2     3
-1.2441341900e-02     1     2     2     4
-9.8130700000e-05     1     2     2     5
-3.1102978100e-02     1     2     3     1
-7.7519846000e-02     1     2     3     3
 3.8805159000e-03     1     2     3     4
 3.0081300000e-05     1     2     3     5
-4.2634740000e-04     1     2     4     1
 5.8014122000e-03     1     2     4     3
-1.0076461920e-01     1     2     4     4
 1.4381900000e-05     1     2     4     5
-2.9169000000e-06     1     2     5     1
 4.5389500000e-05     1     2     5     3
 1.4485400000e-05     1     2     5     4
-1.0328662910e-01     1     2     5     5
-3.1102978100e-02     1     3     2     1
 1.7173867900e-02     1     3     2     2
-1.9208963000e-03     1     3     2     4
-1.5308200000e-05     1     3     2     5
-2.5150400770e-01     1     3     3     1
 7.7519846000e-02     1     3     3     2
-1.0224437000e-02     1     3     3     4
-8.0901400000e-05     1     3     3     5
 1.8537724000e-03     1     3     4     1
-5.8014122000e-03     1     3     4     2
-6.2833370600e-02     1     3     4     4
 5.5048000000e-06     1     3     4     5
 1.4576900000e-05     1     3     5     1
-4.5389500000e-05     1     3     5     2
 5.4869000000e-06     1     3     5     4
-6.4037092900e-02     1     3     5     5
-4.2634740000e-04     1     4     2     1
 1.2441341900e-02     1     4     2     2
 1.9208963000e-03     1     4     2     3
-1.0350000000e-07     1     4     2     5
 1.8537724000e-03     1     4     3     1
-3.8805159000e-03     1     4     3     2
 1.0224437000e-02     1     4     3     3
 1.7900000000e-08     1     4     3     5
-2.7666212650e-01     1     4     4     1
 1.0076461920e-01     1     4     4     2
 6.2833370600e-02     1     4     4     3
-1.0624970000e-04     1     4     4     5
 2.4518200000e-05     1     4     5     1
-1.4485400000e-05     1     4     5     2
-5.4869000000e-06     1     4     5     3
 1.3528252500e-02     1     4     5     5
-2.9169000000e-06     1     5     2     1
 9.8130700000e-05     1     5     2     2
 1.5308200000e-05     1     5     2     3
 1.0350000000e-07     1     5     2     4
 1.4576900000e-05     1     5     3     1
-3.0081300000e-05     1     5     3     2
 8.0901400000e-05     1     5     3     3
-1.7900000000e-08     1     5     3     4
 2.4518200000e-05     1     5     4     1
-1.4381900000e-05     1     5     4     2
-5.5048000000e-06     1     5     4     3
 1.0624970000e-04     1     5     4     4
-2.8109086850e-01     1     5     5     1
 1.0328662910e-01     1     5     5     2
 6.4037092900e-02     1     5     5     3
-1.3528252500e-02     1     5     5     4
-1.0034491470e-01     2     1     1     2
-3.1102978100e-02     2     1     1     3
-4.2634740000e-04     2     1     1     4
-2.9169000000e-06     2     1     1     5
-1.7173867900e-02     2     1     3     2
-7.7519846000e-02     2     1     3     3
 5.8014122000e-03     2     1     3     4
 4.5389500000e-05     2     1     3     5
-1.2441341900e-02     2     1     4     2
 3.8805159000e-03     2     1     4     3
-1.0076461920e-01     2     1     4     4
 1.4485400000e-05     2     1     4     5
-9.8130700000e-05     2     1     5     2
 3.0081300000e-05     2     1     5     3
 1.4381900000e-05     2     1     5     4
-1.0328662910e-01     2     1     5     5
 1.0034491470e-01     2     2     1     1
 1.7173867900e-02     2     2     1     3
 1.2441341900e-02     2     2     1     4
 9.8130700000e-05     2     2     1     5
 1.7173867900e-02     2     2     3     1
 1.3608655850e-01     2     2     3     3
 4.8713692000e-03     2     2     3     4
 3.8008300000e-05     2     2     3     5
 1.2441341900e-02     2     2     4     1
 4.8713692000e-03     2     2     4     3
 1.5962454160e-01     2     2     4     4
 8.4037000000e-06     2     2     4     5
 9.8130700000e-05     2     2     5     1
 3.8008300000e-05     2     2     5     3
 8.4037000000e-06     2     2     5     4
 1.5907506570e-01     2     2     5     5
 3.1102978100e-02     2     3     1     1
-1.7173867900e-02     2     3     1     2
 1.9208963000e-03     2     3     1     4
 1.5308200000e-05     2     3     1     5
 7.7519846000e-02     2     3     3     1
-1.3608655850e-01     2     3     3     2
-2.7045364000e-03     2     3     3     4
-2.0681600000e-05     2     3     3     5
-3.8805159000e-03     2     3     4     1
-4.8713692000e-03     2     3     4     2
 7.4537091900e-02     2     3     4     4
-1.0951500000e-05     2     3     4     5
-3.0081300000e-05     2     3     5     1
-3.8008300000e-05     2     3     5     2
-1.0976000000e-05     2     3     5     4
 7.6461893900e-02     2     3     5     5
 4.2634740000e-04     2     4     1     1
-1.2441341900e-02     2     4     1     2
-1.9208963000e-03     2     4     1     3
 1.0350000000e-07     2     4     1     5
-5.8014122000e-03     2     4     3     1
-4.8713692000e-03     2     4     3     2
 2.7045364000e-03     2     4     3     3
 2.4500000000e-08     2     4     3     5
 1.0076461920e-01     2     4     4     1
-1.5962454160e-01     2     4     4     2
-7.4537091900e-02     2     4     4     3
 3.3500000000e-08     2     4     4     5
-1.4381900000e-05     2     4     5     1
-8.4037000000e-06     2     4     5     2
 1.0976000000e-05     2     4     5     3
 3.4079000000e-05     2     4     5     5
 2.9169000000e-06     2     5     1     1
-9.8130700000e-05     2     5     1     2
-1.5308200000e-05     2     5     1     3
-1.0350000000e-07     2     5     1     4
-4.5389500000e-05     2     5     3     1
-3.8008300000e-05     2     5     3     2
 2.0681600000e-05     2     5     3     3
-2.4500000000e-08     2     5     3     4
-1.4485400000e-05     2     5     4     1
-8.4037000000e-06     2     5     4     2
 1.0951500000e-05     2     5     4     3
-3.3500000000e-08     2     5     4     4
 1.0328662910e-01     2     5     5     1
-1.5907506570e-01     2     5     5     2
-7.6461893900e-02     2     5     5     3
-3.4079000000e-05     2     5     5     4
-3.1102978100e-02     3     1     1     2
-2.5150400770e-01     3     1     1     3
 1.8537724000e-03     3     1     1     4
 1.4576900000e-05     3     1     1     5
 1.7173867900e-02     3     1     2     2
 7.7519846000e-02     3     1     2     3
-5.8014122000e-03     3     1     2     4
-4.5389500000e-05     3     1     2     5
-1.9208963000e-03     3     1     4     2
-1.0224437000e-02     3     1     4     3
-6.2833370600e-02     3     1     4     4
 5.4869000000e-06     3     1     4     5
-1.5308200000e-05     3     1     5     2
-8.0901400000e-05     3     1     5     3
 5.5048000000e-06     3     1     5     4
-6.4037092900e-02     3     1     5     5
 3.1102978100e-02     3     2     1     1
 7.7519846000e-02     3     2     1     3
-3.8805159000e-03     3     2     1     4
-3.0081300000e-05     3     2     1     5
-1.7173867900e-02     3     2     2     1
-1.3608655850e-01     3     2     2     3
-4.8713692000e-03     3     2     2     4
-3.8008300000e-05     3     2     2     5
 1.9208963000e-03     3     2     4     1
-2.7045364000e-03     3     2     4     3
 7.4537091900e-02     3     2     4     4
-1.0976000000e-05     3     2     4     5
 1.5308200000e-05     3     2     5     1
-2.0681600000e-05     3     2     5     3
-1.0951500000e-05     3     2     5     4
 7.6461893900e-02     3     2     5     5
 2.5150400770e-01     3     3     1     1
-7.7519846000e-02     3     3     1     2
 1.0224437000e-02     3     3     1     4
 8.0901400000e-05     3     3     1     5
-7.7519846000e-02     3     3     2     1
 1.3608655850e-01     3     3     2     2
 2.7045364000e-03     3     3     2     4
 2.0681600000e-05     3     3     2     5
 1.0224437000e-02     3     3     4     1
 2.7045364000e-03     3     3     4     2
 3.0923732310e-01     3     3     4     4
-2.9163800000e-05     3     3     4     5
 8.0901400000e-05     3     3     5     1
 2.0681600000e-05     3     3     5     2
-2.9163800000e-05     3     3     5     4
 3.1461369110e-01     3     3     5     5
-1.8537724000e-03     3     4     1     1
 3.8805159000e-03     3     4     1     2
-1.0224437000e-02     3     4     1     3
-1.7900000000e-08     3     4     1     5
 5.8014122000e-03     3     4     2     1
 4.8713692000e-03     3     4     2     2
-2.7045364000e-03     3     4     2     3
-2.4500000000e-08     3     4     2     5
 6.2833370600e-02     3     4     4     1
-7.4537091900e-02     3     4     4     2
-3.0923732310e-01     3     4     4     3
 3.9755600000e-05     3     4     4     5
-5.5048000000e-06     3     4     5     1
 1.0951500000e-05     3     4     5     2
 2.9163800000e-05     3     4     5     3
-5.1616271000e-03     3     4     5     5
-1.4576900000e-05     3     5     1     1
 3.0081300000e-05     3     5     1     2
-8.0901400000e-05     3     5     1     3
 1.7900000000e-08     3     5     1     4
 4.5389500000e-05     3     5     2     1
 3.8008300000e-05     3     5     2     2
-2.0681600000e-05     3     5     2     3
 2.4500000000e-08     3     5     2     4
-5.4869000000e-06     3     5     4     1
 1.0976000000e-05     3     5     4     2
 2.9163800000e-05     3     5     4     3
-3.9755600000e-05     3     5     4     4
 6.4037092900e-02     3     5     5     1
-7.6461893900e-02     3     5     5     2
-3.1461369110e-01     3     5     5     3
 5.1616271000e-03     3     5     5     4
-4.2634740000e-04     4     1     1     2
 1.8537724000e-03     4     1     1     3
-2.7666212650e-01     4     1     1     4
 2.4518200000e-05     4     1     1     5
 1.2441341900e-02     4     1     2     2
-3.8805159000e-03     4     1     2     3
 1.0076461920e-01     4     1     2     4
-1.4485400000e-05     4     1     2     5
 1.9208963000e-03     4     1     3     2
 1.0224437000e-02     4     1     3     3
 6.2833370600e-02     4     1     3     4
-5.4869000000e-06     4     1     3     5
-1.0350000000e-07     4     1     5     2
 1.7900000000e-08     4     1     5     3
-1.0624970000e-04     4     1     5     4
 1.3528252500e-02     4     1     5     5
 4.2634740000e-04     4     2     1     1
-5.8014122000e-03     4     2     1     3
 1.0076461920e-01     4     2     1     4
-1.4381900000e-05     4     2     1     5
-1.2441341900e-02     4     2     2     1
-4.8713692000e-03     4     2     2     3
-1.5962454160e-01     4     2     2     4
-8.4037000000e-06     4     2     2     5
-1.9208963000e-03     4     2     3     1
 2.7045364000e-03     4     2     3     3
-7.4537091900e-02     4     2     3     4
 1.0976000000e-05     4     2     3     5
 1.0350000000e-07     4     2     5     1
 2.4500000000e-08     4     2     5     3
 3.3500000000e-08     4     2     5     4
 3.4079000000e-05     4     2     5     5
-1.8537724000e-03     4     3     1     1
 5.8014122000e-03     4     3     1     2
 6.2833370600e-02     4     3     1     4
-5.5048000000e-06     4     3     1     5
 3.8805159000e-03     4     3     2     1
 4.8713692000e-03     4     3     2     2
-7.4537091900e-02     4     3     2     4
 1.0951500000e-05     4     3     2     5
-1.0224437000e-02     4     3     3     1
-2.7045364000e-03     4     3     3     2
-3.0923732310e-01     4     3     3     4
 2.9163800000e-05     4     3     3     5
-1.7900000000e-08     4     3     5     1
-2.4500000000e-08     4     3     5     2
 3.9755600000e-05     4     3     5     4
-5.1616271000e-03     4     3     5     5
 2.7666212650e-01     4     4     1     1
-1.0076461920e-01     4     4     1     2
-6.2833370600e-02     4     4     1     3
 1.0624970000e-04     4     4     1     5
-1.0076461920e-01     4     4     2     1
 1.5962454160e-01     4     4     2     2
 7.4537091900e-02     4     4     2     3
-3.3500000000e-08     4     4     2     5
-6.2833370600e-02     4     4     3     1
 7.4537091900e-02     4     4     3     2
 3.0923732310e-01     4     4     3     3
-3.9755600000e-05     4     4     3     5
 1.0624970000e-04     4     4     5     1
-3.3500000000e-08     4     4     5     2
-3.9755600000e-05     4     4     5     3
 3.3959022830e-01     4     4     5     5
-2.4518200000e-05     4     5     1     1
 1.4381900000e-05     4     5     1     2
 5.5048000000e-06     4     5     1     3
-1.0624970000e-04     4     5     1     4
 1.4485400000e-05     4     5     2     1
 8.4037000000e-06     4     5     2     2
-1.0951500000e-05     4     5     2     3
 3.3500000000e-08     4     5     2     4
 5.4869000000e-06     4     5     3     1
-1.0976000000e-05     4     5     3     2
-2.9163800000e-05     4     5     3     3
 3.9755600000e-05     4     5     3     4
-1.3528252500e-02     4     5     5     1
-3.4079000000e-05     4     5     5     2
 5.1616271000e-03     4     5     5     3
-3.3959022830e-01     4     5     5     4
-2.9169000000e-06     5     1     1     2
 1.4576900000e-05     5     1     1     3
 2.4518200000e-05     5     1     1     4
-2.8109086850e-01     5     1     1     5
 9.8130700000e-05     5     1     2     2
-3.0081300000e-05     5     1     2     3
-1.4381900000e-05     5     1     2     4
 1.0328662910e-01     5     1     2     5
 1.5308200000e-05     5     1     3     2
 8.0901400000e-05     5     1     3     3
-5.5048000000e-06     5     1     3     4
 6.4037092900e-02     5     1     3     5
 1.0350000000e-07     5     1     4     2
-1.7900000000e-08     5     1     4     3
 1.0624970000e-04     5     1     4     4
-1.3528252500e-02     5     1     4     5
 2.9169000000e-06     5     2     1     1
-4.5389500000e-05     5     2     1     3
-1.4485400000e-05     5     2     1     4
 1.0328662910e-01     5     2     1     5
-9.8130700000e-05     5     2     2     1
-3.8008300000e-05     5     2     2     3
-8.4037000000e-06     5     2     2     4
-1.5907506570e-01     5     2     2     5
-1.5308200000e-05     5     2     3     1
 2.0681600000e-05     5     2     3     3
 1.0951500000e-05     5     2     3     4
-7.6461893900e-02     5     2     3     5
-1.0350000000e-07     5     2     4     1
-2.4500000000e-08     5     2     4     3
-3.3500000000e-08     5     2     4     4
-3.4079000000e-05     5     2     4     5
-1.4576900000e-05     5     3     1     1
 4.5389500000e-05     5     3     1     2
-5.4869000000e-06     5     3     1     4
 6.4037092900e-02     5     3     1     5
 3.0081300000e-05     5     3     2     1
 3.8008300000e-05     5     3     2     2
 1.0976000000e-05     5     3     2     4
-7.6461893900e-02     5     3     2     5
-8.0901400000e-05     5     3     3     1
-2.0681600000e-05     5     3     3     2
 2.9163800000e-05     5     3     3     4
-3.1461369110e-01     5     3     3     5
 1.7900000000e-08     5     3     4     1
 2.4500000000e-08     5     3     4     2
-3.9755600000e-05     5     3     4     4
 5.1616271000e-03     5     3     4     5
-2.4518200000e-05     5     4     1     1
 1.4485400000e-05     5     4     1     2
 5.4869000000e-06     5     4     1     3
-1.3528252500e-02     5     4     1     5
 1.4381900000e-05     5     4     2     1
 8.4037000000e-06     5     4     2     2
-1.0976000000e-05     5     4     2     3
-3.4079000000e-05     5     4     2     5
 5.5048000000e-06     5     4     3     1
-1.0951500000e-05     5     4     3     2
-2.9163800000e-05     5     4     3     3
 5.1616271000e-03     5     4     3     5
-1.0624970000e-04     5     4     4     1
 3.3500000000e-08     5     4     4     2
 3.9755600000e-05     5     4     4     3
-3.3959022830e-01     5     4     4     5
 2.8109086850e-01     5     5     1     1
-1.0328662910e-01     5     5     1     2
-6.4037092900e-02     5     5     1     3
 1.3528252500e-02     5     5     1     4
-1.0328662910e-01     5     5     2     1
 1.5907506570e-01     5     5     2     2
 7.6461893900e-02     5     5     2     3
 3.4079000000e-05     5     5     2     4
-6.4037092900e-02     5     5     3     1
 7.6461893900e-02     5     5     3     2
 3.1461369110e-01     5     5     3     3
-5.1616271000e-03     5     5     3     4
 1.3528252500e-02     5     5     4     1
 3.4079000000e-05     5     5     4     2
-5.1616271000e-03     5     5     4     3
 3.3959022830e-01     5     5     4     4
0.0 0 0 0 0
 1.0034491470e-01     1     1     2     2
 3.1102978100e-02     1     1     2     3
 4.2634740000e-04     1     1     2     4
 2.9169000000e-06     1     1     2     5
 3.1102978100e-02     1     1     3     2
 2.5150400770e-01     1     1     3     3
-1.8537724000e-03     1     1     3     4
-1.4576900000e-05     1     1     3     5
 4.2634740000e-04     1     1     4     2
-1.8537724000e-03     1     1     4     3
 2.7666212650e-01     1     1     4     4
-2.4518200000e-05     1     1     4     5
 2.9169000000e-06     1     1     5     2
-1.4576900000e-05     1     1     5     3
-2.4518200000e-05     1     1     5     4
 2.8109086850e-01     1     1     5     5
-1.0034491470e-01     1     2     2     1
-1.7173867900e-02     1     2     2     3
-1.2441341900e-02     1     2     2     4
-9.8130700000e-05     1     2     2     5
-3.1102978100e-02     1     2     3     1
-7.7519846000e-02     1     2     3     3
 3.8805159000e-03     1     2     3     4
 3.0081300000e-05     1     2     3     5
-4.2634740000e-04     1     2     4     1
 5.8014122000e-03     1     2     4     3
-1.0076461920e-01     1     2     4     4
 1.4381900000e-05     1     2     4     5
-2.9169000000e-06     1     2     5     1
 4.5389500000e-05     1     2     5     3
 1.4485400000e-05     1     2     5     4
-1.0328662910e-01     1     2     5     5
-3.1102978100e-02     1     3     2     1
 1.7173867900e-02     1     3     2     2
-1.9208963000e-03     1     3     2     4
-1.5308200000e-05     1     3     2     5
-2.5150400770e-01     1     3     3     1
 7.7519846000e-02     1     3     3     2
-1.0224437000e-02     1     3     3     4
-8.0901400000e-05     1     3     3     5
 1.8537724000e-03     1     3     4     1
-5.8014122000e-03     1     3     4     2
-6.2833370600e-02     1     3     4     4
 5.5048000000e-06     1     3     4     5
 1.4576900000e-05     1     3     5     1
-4.5389500000e-05     1     3     5     2
 5.4869000000e-06     1     3     5     4
-6.4037092900e-02     1     3     5     5
-4.2634740000e-04     1     4     2     1
 1.2441341900e-02     1     4     2     2
 1.9208963000e-03     1     4     2     3
-1.0350000000e-07     1     4     2     5
 1.8537724000e-03     1     4     3     1
-3.8805159000e-03     1     4     3     2
 1.0224437000e-02     1     4     3     3
 1.7900000000e-08     1     4     3     5
-2.7666212650e-01     1     4     4     1
 1.0076461920e-01     1     4     4     2
 6.2833370600e-02     1     4     4     3
-1.0624970000e-04     1     4     4     5
 2.4518200000e-05     1     4     5     1
-1.4485400000e-05     1     4     5     2
-5.4869000000e-06     1     4     5     3
 1.3528252500e-02     1     4     5     5
-2.9169000000e-06     1     5     2     1
 9.8130700000e-05     1     5     2     2
 1.5308200000e-05     1     5     2     3
 1.0350000000e-07     1     5     2     4
 1.4576900000e-05     1     5     3     1
-3.0081300000e-05     1     5     3     2
 8.0901400000e-05     1     5     3     3
-1.7900000000e-08     1     5     3     4
 2.4518200000e-05     1     5     4     1
-1.4381900000e-05     1     5     4     2
-5.5048000000e-06     1     5     4     3
 1.0624970000e-04     1     5     4     4
-2.8109086850e-01     1     5     5     1
 1.0328662910e-01     1     5     5     2
 6.4037092900e-02     1     5     5     3
-1.3528252500e-02     1     5     5     4
-1.0034491470e-01     2     1     1     2
-3.1102978100e-02     2     1     1     3
-4.2634740000e-04     2     1     1     4
-2.9169000000e-06     2     1     1     5
-1.7173867900e-02     2     1     3     2
-7.7519846000e-02     2     1     3     3
 5.8014122000e-03     2     1     3     4
 4.5389500000e-05     2     1     3     5
-1.2441341900e-02     2     1     4     2
 3.8805159000e-03     2     1     4     3
-1.0076461920e-01     2     1     4     4
 1.4485400000e-05     2     1     4     5
-9.8130700000e-05     2     1     5     2
 3.0081300000e-05     2     1     5     3
 1.4381900000e-05     2     1     5     4
-1.0328662910e-01     2     1     5     5
 1.0034491470e-01     2     2     1     1
 1.7173867900e-02     2     2     1     3
 1.2441341900e-02     2     2     1     4
 9.8130700000e-05     2     2     1     5
 1.7173867900e-02     2     2     3     1
 1.3608655850e-01     2     2     3     3
 4.8713692000e-03     2     2     3     4
 3.8008300000e-05     2     2     3     5
 1.2441341900e-02     2     2     4     1
 4.8713692000e-03     2     2     4     3
 1.5962454160e-01     2     2     4     4
 8.4037000000e-06     2     2     4     5
 9.8130700000e-05     2     2     5     1
 3.8008300000e-05     2     2     5     3
 8.4037000000e-06     2     2     5     4
 1.5907506570e-01     2     2     5     5
 3.1102978100e-02     2     3     1     1
-1.7173867900e-02     2     3     1     2
 1.9208963000e-03     2     3     1     4
 1.5308200000e-05     2     3     1     5
 7.7519846000e-02     2     3     3     1
-1.3608655850e-01     2     3     3     2
-2.7045364000e-03     2     3     3     4
-2.0681600000e-05     2     3     3     5
-3.8805159000e-03     2     3     4     1
-4.8713692000e-03     2     3     4     2
 7.4537091900e-02     2     3     4     4
-1.0951500000e-05     2     3     4     5
-3.0081300000e-05     2     3     5     1
-3.8008300000e-05     2     3     5     2
-1.0976000000e-05     2     3     5     4
 7.6461893900e-02     2     3     5     5
 4.2634740000e-04     2     4     1     1
-1.2441341900e-02     2     4     1     2
-1.9208963000e-03     2     4     1     3
 1.0350000000e-07     2     4     1     5
-5.8014122000e-03     2     4     3     1
-4.8713692000e-03     2     4     3     2
 2.7045364000e-03     2     4     3     3
 2.4500000000e-08     2     4     3     5
 1.0076461920e-01     2     4     4     1
-1.5962454160e-01     2     4     4     2
-7.4537091900e-02     2     4     4     3
 3.3500000000e-08     2     4     4     5
-1.4381900000e-05     2     4     5     1
-8.4037000000e-06     2     4     5     2
 1.0976000000e-05     2     4     5     3
 3.4079000000e-05     2     4     5     5
 2.9169000000e-06     2     5     1     1
-9.8130700000e-05     2     5     1     2
-1.5308200000e-05     2     5     1     3
-1.0350000000e-07     2     5     1     4
-4.5389500000e-05     2     5     3     1
-3.8008300000e-05     2     5     3     2
 2.0681600000e-05     2     5     3     3
-2.4500000000e-08     2     5     3     4
-1.4485400000e-05     2     5     4     1
-8.4037000000e-06     2     5     4     2
 1.0951500000e-05     2     5     4     3
-3.3500000000e-08     2     5     4     4
 1.0328662910e-01     2     5     5     1
-1.5907506570e-01     2     5     5     2
-7.6461893900e-02     2     5     5     3
-3.4079000000e-05     2     5     5     4
-3.1102978100e-02     3     1     1     2
-2.5150400770e-01     3     1     1     3
 1.8537724000e-03     3     1     1     4
 1.4576900000e-05     3     1     1     5
 1.7173867900e-02     3     1     2     2
 7.7519846000e-02     3     1     2     3
-5.8014122000e-03     3     1     2     4
-4.5389500000e-05     3     1     2     5
-1.9208963000e-03     3     1     4     2
-1.0224437000e-02     3     1     4     3
-6.2833370600e-02     3     1     4     4
 5.4869000000e-06     3     1     4     5
-1.5308200000e-05     3     1     5     2
-8.0901400000e-05     3     1     5     3
 5.5048000000e-06     3     1     5     4
-6.4037092900e-02     3     1     5     5
 3.1102978100e-02     3     2     1     1
 7.7519846000e-02     3     2     1     3
-3.8805159000e-03     3     2     1     4
-3.0081300000e-05     3     2     1     5
-1.7173867900e-02     3     2     2     1
-1.3608655850e-01     3     2     2     3
-4.8713692000e-03     3     2     2     4
-3.8008300000e-05     3     2     2     5
 1.9208963000e-03     3     2     4     1
-2.7045364000e-03     3     2     4     3
 7.4537091900e-02     3     2     4     4
-1.0976000000e-05     3     2     4     5
 1.5308200000e-05     3     2     5     1
-2.0681600000e-05     3     2     5     3
-1.0951500000e-05     3     2     5     4
 7.6461893900e-02     3     2     5     5
 2.5150400770e-01     3     3     1     1
-7.7519846000e-02     3     3     1     2
 1.0224437000e-02     3     3     1     4
 8.0901400000e-05     3     3     1     5
-7.7519846000e-02     3     3     2     1
 1.3608655850e-01     3     3     2     2
 2.7045364000e-03     3     3     2     4
 2.0681600000e-05     3     3     2     5
 1.0224437000e-02     3     3     4     1
 2.7045364000e-03     3     3     4     2
 3.0923732310e-01     3     3     4     4
-2.9163800000e-05     3     3     4     5
 8.0901400000e-05     3     3     5     1
 2.0681600000e-05     3     3     5     2
-2.9163800000e-05     3     3     5     4
 3.1461369110e-01     3     3     5     5
-1.8537724000e-03     3     4     1     1
 3.8805159000e-03     3     4     1     2
-1.0224437000e-02     3     4     1     3
-1.7900000000e-08     3     4     1     5
 5.8014122000e-03     3     4     2     1
 4.8713692000e-03     3     4     2     2
-2.7045364000e-03     3     4     2     3
-2.4500000000e-08     3     4     2     5
 6.2833370600e-02     3     4     4     1
-7.4537091900e-02     3     4     4     2
-3.0923732310e-01     3     4     4     3
 3.9755600000e-05     3     4     4     5
-5.5048000000e-06     3     4     5     1
 1.0951500000e-05     3     4     5     2
 2.9163800000e-05     3     4     5     3
-5.1616271000e-03     3     4     5     5
-1.4576900000e-05     3     5     1     1
 3.0081300000e-05     3     5     1     2
-8.0901400000e-05     3     5     1     3
 1.7900000000e-08     3     5     1     4
 4.5389500000e-05     3     5     2     1
 3.8008300000e-05     3     5     2     2
-2.0681600000e-05     3     5     2     3
 2.4500000000e-08     3     5     2     4
-5.4869000000e-06     3     5     4     1
 1.0976000000e-05     3     5     4     2
 2.9163800000e-05     3     5     4     3
-3.9755600000e-05     3     5     4     4
 6.4037092900e-02     3     5     5     1
-7.6461893900e-02     3     5     5     2
-3.1461369110e-01     3     5     5     3
 5.1616271000e-03     3     5     5     4
-4.2634740000e-04     4     1     1     2
 1.8537724000e-03     4     1     1     3
-2.7666212650e-01     4     1     1     4
 2.4518200000e-05     4     1     1     5
 1.2441341900e-02     4     1     2     2
-3.8805159000e-03     4     1     2     3
 1.0076461920e-01     4     1     2     4
-1.4485400000e-05     4     1     2     5
 1.9208963000e-03     4     1     3     2
 1.0224437000e-02     4     1     3     3
 6.2833370600e-02     4     1     3     4
-5.4869000000e-06     4     1     3     5
-1.0350000000e-07     4     1     5     2
 1.7900000000e-08     4     1     5     3
-1.0624970000e-04     4     1     5     4
 1.3528252500e-02     4     1     5     5
 4.2634740000e-04     4     2     1     1
-5.8014122000e-03     4     2     1     3
 1.0076461920e-01     4     2     1     4
-1.4381900000e-05     4     2     1     5
-1.2441341900e-02     4     2     2     1
-4.8713692000e-03     4     2     2     3
-1.5962454160e-01     4     2     2     4
-8.4037000000e-06     4     2     2     5
-1.9208963000e-03     4     2     3     1
 2.7045364000e-03     4     2     3     3
-7.4537091900e-02     4     2     3     4
 1.0976000000e-05     4     2     3     5
 1.0350000000e-07     4     2     5     1
 2.4500000000e-08     4     2     5     3
 3.3500000000e-08     4     2     5     4
 3.4079000000e-05     4     2     5     5
-1.8537724000e-03     4     3     1     1
 5.8014122000e-03     4     3     1     2
 6.2833370600e-02     4     3     1     4
-5.5048000000e-06     4     3     1     5
 3.8805159000e-03     4     3     2     1
 4.8713692000e-03     4     3     2     2
-7.4537091900e-02     4     3     2     4
 1.0951500000e-05     4     3     2     5
-1.0224437000e-02     4     3     3     1
-2.7045364000e-03     4     3     3     2
-3.0923732310e-01     4     3     3     4
 2.9163800000e-05     4     3     3     5
-1.7900000000e-08     4     3     5     1
-2.4500000000e-08     4     3     5     2
 3.9755600000e-05     4     3     5     4
-5.1616271000e-03     4     3     5     5
 2.7666212650e-01     4     4     1     1
-1.0076461920e-01     4     4     1     2
-6.2833370600e-02     4     4     1     3
 1.0624970000e-04     4     4     1     5
-1.0076461920e-01     4     4     2     1
 1.5962454160e-01     4     4     2     2
 7.4537091900e-02     4     4     2     3
-3.3500000000e-08     4     4     2     5
-6.2833370600e-02     4     4     3     1
 7.4537091900e-02     4     4     3     2
 3.0923732310e-01     4     4     3     3
-3.9755600000e-05     4     4     3     5
 1.0624970000e-04     4     4     5     1
-3.3500000000e-08     4     4     5     2
-3.9755600000e-05     4     4     5     3
 3.3959022830e-01     4     4     5     5
-2.4518200000e-05     4     5     1     1
 1.4381900000e-05     4     5     1     2
 5.5048000000e-06     4     5     1     3
-1.0624970000e-04     4     5     1     4
 1.4485400000e-05     4     5     2     1
 8.4037000000e-06     4     5     2     2
-1.0951500000e-05     4     5     2     3
 3.3500000000e-08     4     5     2     4