&FCI NORB=  5,NELEC=  2,MS2=0,
 ORBSYM=1,1,1,1,1
 ISYM=1,
&END
 1.2739717570e-01     1     1     2     2
 3.9730542100e-02     1     1     2     3
-5.8278594000e-03     1     1     2     4
 2.6579000000e-05     1     1     2     5
 3.9730542100e-02     1     1     3     2
 2.6332611510e-01     1     1     3     3
 2.4976327000e-03     1     1     3     4
-1.1618000000e-05     1     1     3     5
-5.8278594000e-03     1     1     4     2
 2.4976327000e-03     1     1     4     3
 2.7901099000e-01     1     1     4     4
 1.8813700000e-05     1     1     4     5
 2.6579000000e-05     1     1     5     2
-1.1618000000e-05     1     1     5     3
 1.8813700000e-05     1     1     5     4
 2.8488053240e-01     1     1     5     5
-1.2739717570e-01     1     2     2     1
-2.0289470100e-02     1     2     2     3
 2.0885677500e-02     1     2     2     4
-9.5810600000e-05     1     2     2     5
-3.9730542100e-02     1     2     3     1
-7.2360049500e-02     1     2     3     3
-5.7209249000e-03     1     2     3     4
 2.5786100000e-05     1     2     3     5
 5.8278594000e-03     1     2     4     1
-9.3419204000e-03     1     2     4     3
-9.0995947900e-02     1     2     4     4
-1.3401300000e-05     1     2     4     5
-2.6579000000e-05     1     2     5     1
 4.2521600000e-05     1     2     5     3
-1.3457500000e-05     1     2     5     4
-9.4717299000e-02     1     2     5     5
-3.9730542100e-02     1     3     2     1
 2.0289470100e-02     1     3     2     2
 3.6209955000e-03     1     3     2     4
-1.6735500000e-05     1     3     2     5
-2.6332611510e-01     1     3     3     1
 7.2360049500e-02     1     3     3     2
 1.2154698000e-02     1     3     3     4
-5.5604600000e-05     1     3     3     5
-2.4976327000e-03     1     3     4     1
 9.3419204000e-03     1     3     4     2
-5.6370042400e-02     1     3     4     4
-5.1597000000e-06     1     3     4     5
 1.1618000000e-05     1     3     5     1
-4.2521600000e-05     1     3     5     2
-5.2595000000e-06     1     3     5     4
-5.8077406500e-02     1     3     5     5
 5.8278594000e-03     1     4     2     1
-2.0885677500e-02     1     4     2     2
-3.6209955000e-03     1     4     2     3
 5.6200000000e-08     1     4     2     5
-2.4976327000e-03     1     4     3     1
 5.7209249000e-03     1     4     3     2
-1.2154698000e-02     1     4     3     3
 9.9800000000e-08     1     4     3     5
-2.7901099000e-01     1     4     4     1
 9.0995947900e-02     1     4     4     2
 5.6370042400e-02     1     4     4     3
-7.3930800000e-05     1     4     4     5
-1.8813700000e-05     1     4     5     1
 1.3457500000e-05     1     4     5     2
 5.2595000000e-06     1     4     5     3
-1.6249422800e-02     1     4     5     5
-2.6579000000e-05     1     5     2     1
 9.5810600000e-05     1     5     2     2
 1.6735500000e-05     1     5     2     3
-5.6200000000e-08     1     5     2     4
 1.1618000000e-05     1     5     3     1
-2.5786100000e-05     1     5     3     2
 5.5604600000e-05     1     5     3     3
-9.9800000000e-08     1     5     3     4
-1.8813700000e-05     1     5     4     1
 1.3401300000e-05     1     5     4     2
 5.1597000000e-06     1     5     4     3
 7.3930800000e-05     1     5     4     4
-2.8488053240e-01     1     5     5     1
 9.4717299000e-02     1     5     5     2
 5.8077406500e-02     1     5     5     3
 1.6249422800e-02     1     5     5     4
-1.2739717570e-01     2     1     1     2
-3.9730542100e-02     2     1     1     3
 5.8278594000e-03     2     1     1     4
-2.6579000000e-05     2     1     1     5
-2.0289470100e-02     2     1     3     2
-7.2360049500e-02     2     1     3     3
-9.3419204000e-03     2     1     3     4
 4.2521600000e-05     2     1     3     5
 2.0885677500e-02     2     1     4     2
-5.7209249000e-03     2     1     4     3
-9.0995947900e-02     2     1     4     4
-1.3457500000e-05     2     1     4     5
-9.5810600000e-05     2     1     5     2
 2.5786100000e-05     2     1     5     3
-1.3401300000e-05     2     1     5     4
-9.4717299000e-02     2     1     5     5
 1.2739717570e-01     2     2     1     1
 2.0289470100e-02     2     2     1     3
-2.0885677500e-02     2     2     1     4
 9.5810600000e-05     2     2     1     5
 2.0289470100e-02     2     2     3     1
 1.5461061640e-01     2     2     3     3
-4.4389660000e-03     2     2     3     4
 1.9774700000e-05     2     2     3     5
-2.0885677500e-02     2     2     4     1
-4.4389660000e-03     2     2     4     3
 1.8521265450e-01     2     2     4     4
-8.9404000000e-06     2     2     4     5
 9.5810600000e-05     2     2     5     1
 1.9774700000e-05     2     2     5     3
-8.9404000000e-06     2     2     5     4
 1.8420567860e-01     2     2     5     5
 3.9730542100e-02     2     3     1     1
-2.0289470100e-02     2     3     1     2
-3.6209955000e-03     2     3     1     4
 1.6735500000e-05     2     3     1     5
 7.2360049500e-02     2     3     3     1
-1.5461061640e-01     2     3     3     2
 1.1951767300e-02     2     3     3     4
-5.4734700000e-05     2     3     3     5
 5.7209249000e-03     2     3     4     1
 4.4389660000e-03     2     3     4     2
 7.9023552200e-02     2     3     4     4
 9.5609000000e-06     2     3     4     5
-2.5786100000e-05     2     3     5     1
-1.9774700000e-05     2     3     5     2
 9.5976000000e-06     2     3     5     4
 8.1852039100e-02     2     3     5     5
-5.8278594000e-03     2     4     1     1
 2.0885677500e-02     2     4     1     2
 3.6209955000e-03     2     4     1     3
-5.6200000000e-08     2     4     1     5
 9.3419204000e-03     2     4     3     1
 4.4389660000e-03     2     4     3     2
-1.1951767300e-02     2     4     3     3
-3.6700000000e-08     2     4     3     5
 9.0995947900e-02     2     4     4     1
-1.8521265450e-01     2     4     4     2
-7.9023552200e-02     2     4     4     3
-3.7678600000e-05     2     4     4     5
 1.3401300000e-05     2     4     5     1
 8.9404000000e-06     2     4     5     2
-9.5976000000e-06     2     4     5     3
-8.2487951000e-03     2     4     5     5
 2.6579000000e-05     2     5     1     1
-9.5810600000e-05     2     5     1     2
-1.6735500000e-05     2     5     1     3
 5.6200000000e-08     2     5     1     4
-4.2521600000e-05     2     5     3     1
-1.9774700000e-05     2     5     3     2
 5.4734700000e-05     2     5     3     3
 3.6700000000e-08     2     5     3     4
 1.3457500000e-05     2     5     4     1
 8.9404000000e-06     2     5     4     2
-9.5609000000e-06     2     5     4     3
 3.7678600000e-05     2     5     4     4
 9.4717299000e-02     2     5     5     1
-1.8420567860e-01     2     5     5     2
-8.1852039100e-02     2     5     5     3
 8.2487951000e-03     2     5     5     4
-3.9730542100e-02     3     1     1     2
-2.6332611510e-01     3     1     1     3
-2.4976327000e-03     3     1     1     4
 1.1618000000e-05     3     1     1     5
 2.0289470100e-02     3     1     2     2
 7.2360049500e-02     3     1     2     3
 9.3419204000e-03     3     1     2     4
-4.2521600000e-05     3     1     2     5
 3.6209955000e-03     3     1     4     2
 1.2154698000e-02     3     1     4     3
-5.6370042400e-02     3     1     4     4
-5.2595000000e-06     3     1     4     5
-1.6735500000e-05     3     1     5     2
-5.5604600000e-05     3     1     5     3
-5.1597000000e-06     3     1     5     4
-5.8077406500e-02     3     1     5     5
 3.9730542100e-02     3     2     1     1
 7.2360049500e-02     3     2     1     3
 5.7209249000e-03     3     2     1     4
-2.5786100000e-05     3     2     1     5
-2.0289470100e-02     3     2     2     1
-1.5461061640e-01     3     2     2     3
 4.4389660000e-03     3     2     2     4
-1.9774700000e-05     3     2     2     5
-3.6209955000e-03     3     2     4     1
 1.1951767300e-02     3     2     4     3
 7.9023552200e-02     3     2     4     4
 9.5976000000e-06     3     2     4     5
 1.6735500000e-05     3     2     5     1
-5.4734700000e-05     3     2     5     3
 9.5609000000e-06     3     2     5     4
 8.1852039100e-02     3     2     5     5
 2.6332611510e-01     3     3     1     1
-7.2360049500e-02     3     3     1     2
-1.2154698000e-02     3     3     1     4
 5.5604600000e-05     3     3     1     5
-7.2360049500e-02     3     3     2     1
 1.5461061640e-01     3     3     2     2
-1.1951767300e-02     3     3     2     4
 5.4734700000e-05     3     3     2     5
-1.2154698000e-02     3     3     4     1
-1.1951767300e-02     3     3     4     2
 3.0446203040e-01     3     3     4     4
 2.3615400000e-05     3     3     4     5
 5.5604600000e-05     3     3     5     1
 5.4734700000e-05     3     3     5     2
 2.3615400000e-05     3     3     5     4
 3.1185033050e-01     3     3     5     5
 2.4976327000e-03     3     4     1     1
-5.7209249000e-03     3     4     1     2
 1.2154698000e-02     3     4     1     3
-9.9800000000e-08     3     4     1     5
-9.3419204000e-03     3     4     2     1
-4.4389660000e-03     3     4     2     2
 1.1951767300e-02     3     4     2     3
 3.6700000000e-08     3     4     2     5
 5.6370042400e-02     3     4     4     1
-7.9023552200e-02     3     4     4     2
-3.0446203040e-01     3     4     4     3
 3.2079800000e-05     3     4     4     5
 5.1597000000e-06     3     4     5     1
-9.5609000000e-06     3     4     5     2
-2.3615400000e-05     3     4     5     3
 7.0970389000e-03     3     4     5     5
-1.1618000000e-05     3     5     1     1
 2.5786100000e-05     3     5     1     2
-5.5604600000e-05     3     5     1     3
 9.9800000000e-08     3     5     1     4
 4.2521600000e-05     3     5     2     1
 1.9774700000e-05     3     5     2     2
-5.4734700000e-05     3     5     2     3
-3.6700000000e-08     3     5     2     4
 5.2595000000e-06     3     5     4     1
-9.5976000000e-06     3     5     4     2
-2.3615400000e-05     3     5     4     3
-3.2079800000e-05     3     5     4     4
 5.8077406500e-02     3     5     5     1
-8.1852039100e-02     3     5     5     2
-3.1185033050e-01     3     5     5     3
-7.0970389000e-03     3     5     5     4
 5.8278594000e-03     4     1     1     2
-2.4976327000e-03     4     1     1     3
-2.7901099000e-01     4     1     1     4
-1.8813700000e-05     4     1     1     5
-2.0885677500e-02     4     1     2     2
 5.7209249000e-03     4     1     2     3
 9.0995947900e-02     4     1     2     4
 1.3457500000e-05     4     1     2     5
-3.6209955000e-03     4     1     3     2
-1.2154698000e-02     4     1     3     3
 5.6370042400e-02     4     1     3     4
 5.2595000000e-06     4     1     3     5
 5.6200000000e-08     4     1     5     2
 9.9800000000e-08     4     1     5     3
-7.3930800000e-05     4     1     5     4
-1.6249422800e-02     4     1     5     5
-5.8278594000e-03     4     2     1     1
 9.3419204000e-03     4     2     1     3
 9.0995947900e-02     4     2     1     4
 1.3401300000e-05     4     2     1     5
 2.0885677500e-02     4     2     2     1
 4.4389660000e-03     4     2     2     3
-1.8521265450e-01     4     2     2     4
 8.9404000000e-06     4     2     2     5
 3.6209955000e-03     4     2     3     1
-1.1951767300e-02     4     2     3     3
-7.9023552200e-02     4     2     3     4
-9.5976000000e-06     4     2     3     5
-5.6200000000e-08     4     2     5     1
-3.6700000000e-08     4     2     5     3
-3.7678600000e-05     4     2     5     4
-8.2487951000e-03     4     2     5     5
 2.4976327000e-03     4     3     1     1
-9.3419204000e-03     4     3     1     2
 5.6370042400e-02     4     3     1     4
 5.1597000000e-06     4     3     1     5
-5.7209249000e-03     4     3     2     1
-4.4389660000e-03     4     3     2     2
-7.9023552200e-02     4     3     2     4
-9.5609000000e-06     4     3     2     5
 1.2154698000e-02     4     3     3     1
 1.1951767300e-02     4     3     3     2
-3.0446203040e-01     4     3     3     4
-2.3615400000e-05     4     3     3     5
-9.9800000000e-08     4     3     5     1
 3.6700000000e-08     4     3     5     2
 3.2079800000e-05     4     3     5     4
 7.0970389000e-03     4     3     5     5
 2.7901099000e-01     4     4     1     1
-9.0995947900e-02     4     4     1     2
-5.6370042400e-02     4     4     1     3
 7.3930800000e-05     4     4     1     5
-9.0995947900e-02     4     4     2     1
 1.8521265450e-01     4     4     2     2
 7.9023552200e-02     4     4     2     3
 3.7678600000e-05     4     4     2     5
-5.6370042400e-02     4     4     3     1
 7.9023552200e-02     4     4     3     2
 3.0446203040e-01     4     4     3     3
-3.2079800000e-05     4     4     3     5
 7.3930800000e-05     4     4     5     1
 3.7678600000e-05     4     4     5     2
-3.2079800000e-05     4     4     5     3
 3.3061059870e-01     4     4     5     5
 1.8813700000e-05     4     5     1     1
-1.3401300000e-05     4     5     1     2
-5.1597000000e-06     4     5     1     3
-7.3930800000e-05     4     5     1     4
-1.3457500000e-05     4     5     2     1
-8.9404000000e-06     4     5     2     2
 9.5609000000e-06     4     5     2     3
-3.7678600000e-05     4     5     2     4
-5.2595000000e-06     4     5     3     1
 9.5976000000e-06     4     5     3     2
 2.3615400000e-05     4     5     3     3
 3.2079800000e-05     4     5     3     4
 1.6249422800e-02     4     5     5     1
 8.2487951000e-03     4     5     5     2
-7.0970389000e-03     4     5     5     3
-3.3061059870e-01     4     5     5     4
-2.6579000000e-05     5     1     1     2
 1.1618000000e-05     5     1     1     3
-1.8813700000e-05     5     1     1     4
-2.8488053240e-01     5     1     1     5
 9.5810600000e-05     5     1     2     2
-2.5786100000e-05     5     1     2     3
 1.3401300000e-05     5     1     2     4
 9.4717299000e-02     5     1     2     5
 1.6735500000e-05     5     1     3     2
 5.5604600000e-05     5     1     3     3
 5.1597000000e-06     5     1     3     4
 5.8077406500e-02     5     1     3     5
-5.6200000000e-08     5     1     4     2
-9.9800000000e-08     5     1     4     3
 7.3930800000e-05     5     1     4     4
 1.6249422800e-02     5     1     4     5
 2.6579000000e-05     5     2     1     1
-4.2521600000e-05     5     2     1     3
 1.3457500000e-05     5     2     1     4
 9.4717299000e-02     5     2     1     5
-9.5810600000e-05     5     2     2     1
-1.9774700000e-05     5     2     2     3
 8.9404000000e-06     5     2     2     4
-1.8420567860e-01     5     2     2     5
-1.6735500000e-05     5     2     3     1
 5.4734700000e-05     5     2     3     3
-9.5609000000e-06     5     2     3     4
-8.1852039100e-02     5     2     3     5
 5.6200000000e-08     5     2     4     1
 3.6700000000e-08     5     2     4     3
 3.7678600000e-05     5     2     4     4
 8.2487951000e-03     5     2     4     5
-1.1618000000e-05     5     3     1     1
 4.2521600000e-05     5     3     1     2
 5.2595000000e-06     5     3     1     4
 5.8077406500e-02     5     3     1     5
 2.5786100000e-05     5     3     2     1
 1.9774700000e-05     5     3     2     2
-9.5976000000e-06     5     3     2     4
-8.1852039100e-02     5     3     2     5
-5.5604600000e-05     5     3     3     1
-5.4734700000e-05     5     3     3     2
-2.3615400000e-05     5     3     3     4
-3.1185033050e-01     5     3     3     5
 9.9800000000e-08     5     3     4     1
-3.6700000000e-08     5     3     4     2
-3.2079800000e-05     5     3     4     4
-7.0970389000e-03     5     3     4     5
 1.8813700000e-05     5     4     1     1
-1.3457500000e-05     5     4     1     2
-5.2595000000e-06     5     4     1     3
 1.6249422800e-02     5     4     1     5
-1.3401300000e-05     5     4     2     1
-8.9404000000e-06     5     4     2     2
 9.5976000000e-06     5     4     2     3
 8.2487951000e-03     5     4     2     5
-5.1597000000e-06     5     4     3     1
 9.5609000000e-06     5     4     3     2
 2.3615400000e-05     5     4     3     3
-7.0970389000e-03     5     4     3     5
-7.3930800000e-05     5     4     4     1
-3.7678600000e-05     5     4     4     2
 3.2079800000e-05     5     4     4     3
-3.3061059870e-01     5     4     4     5
 2.8488053240e-01     5     5     1     1
-9.4717299000e-02     5     5     1     2
-5.8077406500e-02     5     5     1     3
-1.6249422800e-02     5     5     1     4
-9.4717299000e-02     5     5     2     1
 1.8420567860e-01     5     5     2     2
 8.1852039100e-02     5     5     2     3
-8.2487951000e-03     5     5     2     4
-5.8077406500e-02     5     5     3     1
 8.1852039100e-02     5     5     3     2
 3.1185033050e-01     5     5     3     3
 7.0970389000e-03     5     5     3     4
-1.6249422800e-02     5     5     4     1
-8.2487951000e-03     5     5     4     2
 7.0970389000e-03     5     5     4     3
 3.3061059870e-01     5     5     4     4
0.0 0 0 0 0
 1.2739717570e-01     1     1     2     2
 3.9730542100e-02     1     1     2     3
-5.8278594000e-03     1     1     2     4
 2.6579000000e-05     1     1     2     5
 3.9730542100e-02     1     1     3     2
 2.6332611510e-01     1     1     3     3
 2.4976327000e-03     1     1     3     4
-1.1618000000e-05     1     1     3     5
-5.8278594000e-03     1     1     4     2
 2.4976327000e-03     1     1     4     3
 2.7901099000e-01     1     1     4     4
 1.8813700000e-05     1     1     4     5
 2.6579000000e-05     1     1     5     2
-1.1618000000e-05     1     1     5     3
 1.8813700000e-05     1     1     5     4
 2.8488053240e-01     1     1     5     5
-1.2739717570e-01     1     2     2     1
-2.0289470100e-02     1     2     2     3
 2.0885677500e-02     1     2     2     4
-9.5810600000e-05     1     2     2     5
-3.9730542100e-02     1     2     3     1
-7.2360049500e-02     1     2     3     3
-5.7209249000e-03     1     2     3     4
 2.5786100000e-05     1     2     3     5
 5.8278594000e-03     1     2     4     1
-9.3419204000e-03     1     2     4     3
-9.0995947900e-02     1     2     4     4
-1.3401300000e-05     1     2     4     5
-2.6579000000e-05     1     2     5     1
 4.2521600000e-05     1     2     5     3
-1.3457500000e-05     1     2     5     4
-9.4717299000e-02     1     2     5     5
-3.9730542100e-02     1     3     2     1
 2.0289470100e-02     1     3     2     2
 3.6209955000e-03     1     3     2     4
-1.6735500000e-05     1     3     2     5
-2.6332611510e-01     1     3     3     1
 7.2360049500e-02     1     3     3     2
 1.2154698000e-02     1     3     3     4
-5.5604600000e-05     1     3     3     5
-2.4976327000e-03     1     3     4     1
 9.3419204000e-03     1     3     4     2
-5.6370042400e-02     1     3     4     4
-5.1597000000e-06     1     3     4     5
 1.1618000000e-05     1     3     5     1
-4.2521600000e-05     1     3     5     2
-5.2595000000e-06     1     3     5     4
-5.8077406500e-02     1     3     5     5
 5.8278594000e-03     1     4     2     1
-2.0885677500e-02     1     4     2     2
-3.6209955000e-03     1     4     2     3
 5.6200000000e-08     1     4     2     5
-2.4976327000e-03     1     4     3     1
 5.7209249000e-03     1     4     3     2
-1.2154698000e-02     1     4     3     3
 9.9800000000e-08     1     4     3     5
-2.7901099000e-01     1     4     4     1
 9.0995947900e-02     1     4     4     2
 5.6370042400e-02     1     4     4     3
-7.3930800000e-05     1     4     4     5
-1.8813700000e-05     1     4     5     1
 1.3457500000e-05     1     4     5     2
 5.2595000000e-06     1     4     5     3
-1.6249422800e-02     1     4     5     5
-2.6579000000e-05     1     5     2     1
 9.5810600000e-05     1     5     2     2
 1.6735500000e-05     1     5     2     3
-5.6200000000e-08     1     5     2     4
 1.1618000000e-05     1     5     3     1
-2.5786100000e-05     1     5     3     2
 5.5604600000e-05     1     5     3     3
-9.9800000000e-08     1     5     3     4
-1.8813700000e-05     1     5     4     1
 1.3401300000e-05     1     5     4     2
 5.1597000000e-06     1     5     4     3
 7.3930800000e-05     1     5     4     4
-2.8488053240e-01     1     5     5     1
 9.4717299000e-02     1     5     5     2
 5.8077406500e-02     1     5     5     3
 1.6249422800e-02     1     5     5     4
-1.2739717570e-01     2     1     1     2
-3.9730542100e-02     2     1     1     3
 5.8278594000e-03     2     1     1     4
-2.6579000000e-05     2     1     1     5
-2.0289470100e-02     2     1     3     2
-7.2360049500e-02     2     1     3     3
-9.3419204000e-03     2     1     3     4
 4.2521600000e-05     2     1     3     5
 2.0885677500e-02     2     1     4     2
-5.7209249000e-03     2     1     4     3
-9.0995947900e-02     2     1     4     4
-1.3457500000e-05     2     1     4     5
-9.5810600000e-05     2     1     5     2
 2.5786100000e-05     2     1     5     3
-1.3401300000e-05     2     1     5     4
-9.4717299000e-02     2     1     5     5
 1.2739717570e-01     2     2     1     1
 2.0289470100e-02     2     2     1     3
-2.0885677500e-02     2     2     1     4
 9.5810600000e-05     2     2     1     5
 2.0289470100e-02     2     2     3     1
 1.5461061640e-01     2     2     3     3
-4.4389660000e-03     2     2     3     4
 1.9774700000e-05     2     2     3     5
-2.0885677500e-02     2     2     4     1
-4.4389660000e-03     2     2     4     3
 1.8521265450e-01     2     2     4     4
-8.9404000000e-06     2     2     4     5
 9.5810600000e-05     2     2     5     1
 1.9774700000e-05     2     2     5     3
-8.9404000000e-06     2     2     5     4
 1.8420567860e-01     2     2     5     5
 3.9730542100e-02     2     3     1     1
-2.0289470100e-02     2     3     1     2
-3.6209955000e-03     2     3     1     4
 1.6735500000e-05     2     3     1     5
 7.2360049500e-02     2     3     3     1
-1.5461061640e-01     2     3     3     2
 1.1951767300e-02     2     3     3     4
-5.4734700000e-05     2     3     3     5
 5.7209249000e-03     2     3     4     1
 4.4389660000e-03     2     3     4     2
 7.9023552200e-02     2     3     4     4
 9.5609000000e-06     2     3     4     5
-2.5786100000e-05     2     3     5     1
-1.9774700000e-05     2     3     5     2
 9.5976000000e-06     2     3     5     4
 8.1852039100e-02     2     3     5     5
-5.8278594000e-03     2     4     1     1
 2.0885677500e-02     2     4     1     2
 3.6209955000e-03     2     4     1     3
-5.6200000000e-08     2     4     1     5
 9.3419204000e-03     2     4     3     1
 4.4389660000e-03     2     4     3     2
-1.1951767300e-02     2     4     3     3
-3.6700000000e-08     2     4     3     5
 9.0995947900e-02     2     4     4     1
-1.8521265450e-01     2     4     4     2
-7.9023552200e-02     2     4     4     3
-3.7678600000e-05     2     4     4     5
 1.3401300000e-05     2     4     5     1
 8.9404000000e-06     2     4     5     2
-9.5976000000e-06     2     4     5     3
-8.2487951000e-03     2     4     5     5
 2.6579000000e-05     2     5     1     1
-9.5810600000e-05     2     5     1     2
-1.6735500000e-05     2     5     1     3
 5.6200000000e-08     2     5     1     4
-4.2521600000e-05     2     5     3     1
-1.9774700000e-05     2     5     3     2
 5.4734700000e-05     2     5     3     3
 3.6700000000e-08     2     5     3     4
 1.3457500000e-05     2     5     4     1
 8.9404000000e-06     2     5     4     2
-9.5609000000e-06     2     5     4     3
 3.7678600000e-05     2     5     4     4
 9.4717299000e-02     2     5     5     1
-1.8420567860e-01     2     5     5     2
-8.1852039100e-02     2     5     5     3
 8.2487951000e-03     2     5     5     4
-3.9730542100e-02     3     1     1     2
-2.6332611510e-01     3     1     1     3
-2.4976327000e-03     3     1     1     4
 1.1618000000e-05     3     1     1     5
 2.0289470100e-02     3     1     2     2
 7.2360049500e-02     3     1     2     3
 9.3419204000e-03     3     1     2     4
-4.2521600000e-05     3     1     2     5
 3.6209955000e-03     3     1     4     2
 1.2154698000e-02     3     1     4     3
-5.6370042400e-02     3     1     4     4
-5.2595000000e-06     3     1     4     5
-1.6735500000e-05     3     1     5     2
-5.5604600000e-05     3     1     5     3
-5.1597000000e-06     3     1     5     4
-5.8077406500e-02     3     1     5     5
 3.9730542100e-02     3     2     1     1
 7.2360049500e-02     3     2     1     3
 5.7209249000e-03     3     2     1     4
-2.5786100000e-05     3     2     1     5
-2.0289470100e-02     3     2     2     1
-1.5461061640e-01     3     2     2     3
 4.4389660000e-03     3     2     2     4
-1.9774700000e-05     3     2     2     5
-3.6209955000e-03     3     2     4     1
 1.1951767300e-02     3     2     4     3
 7.9023552200e-02     3     2     4     4
 9.5976000000e-06     3     2     4     5
 1.6735500000e-05     3     2     5     1
-5.4734700000e-05     3     2     5     3
 9.5609000000e-06     3     2     5     4
 8.1852039100e-02     3     2     5     5
 2.6332611510e-01     3     3     1     1
-7.2360049500e-02     3     3     1     2
-1.2154698000e-02     3     3     1     4
 5.5604600000e-05     3     3     1     5
-7.2360049500e-02     3     3     2     1
 1.5461061640e-01     3     3     2     2
-1.1951767300e-02     3     3     2     4
 5.4734700000e-05     3     3     2     5
-1.2154698000e-02     3     3     4     1
-1.1951767300e-02     3     3     4     2
 3.0446203040e-01     3     3     4     4
 2.3615400000e-05     3     3     4     5
 5.5604600000e-05     3     3     5     1
 5.4734700000e-05     3     3     5     2
 2.3615400000e-05     3     3     5     4
 3.1185033050e-01     3     3     5     5
 2.4976327000e-03     3     4     1     1
-5.7209249000e-03     3     4     1     2
 1.2154698000e-02     3     4     1     3
-9.9800000000e-08     3     4     1     5
-9.3419204000e-03     3     4     2     1
-4.4389660000e-03     3     4     2     2
 1.1951767300e-02     3     4     2     3
 3.6700000000e-08     3     4     2     5
 5.6370042400e-02     3     4     4     1
-7.9023552200e-02     3     4     4     2
-3.0446203040e-01     3     4     4     3
 3.2079800000e-05     3     4     4     5
 5.1597000000e-06     3     4     5     1
-9.5609000000e-06     3     4     5     2
-2.3615400000e-05     3     4     5     3
 7.0970389000e-03     3     4     5     5
-1.1618000000e-05     3     5     1     1
 2.5786100000e-05     3     5     1     2
-5.5604600000e-05     3     5     1     3
 9.9800000000e-08     3     5     1     4
 4.2521600000e-05     3     5     2     1
 1.9774700000e-05     3     5     2     2
-5.4734700000e-05     3     5     2     3
-3.6700000000e-08     3     5     2     4
 5.2595000000e-06     3     5     4     1
-9.5976000000e-06     3     5     4     2
-2.3615400000e-05     3     5     4     3
-3.2079800000e-05     3     5     4     4
 5.8077406500e-02     3     5     5     1
-8.1852039100e-02     3     5     5     2
-3.1185033050e-01     3     5     5     3
-7.0970389000e-03     3     5     5     4
 5.8278594000e-03     4     1     1     2
-2.4976327000e-03     4     1     1     3
-2.7901099000e-01     4     1     1     4
-1.8813700000e-05     4     1     1     5
-2.0885677500e-02     4     1     2     2
 5.7209249000e-03     4     1     2     3
 9.0995947900e-02     4     1     2     4
 1.3457500000e-05     4     1     2     5
-3.6209955000e-03     4     1     3     2
-1.2154698000e-02     4     1     3     3
 5.6370042400e-02     4     1     3     4
 5.2595000000e-06     4     1     3     5
 5.6200000000e-08     4     1     5     2
 9.9800000000e-08     4     1     5     3
-7.3930800000e-05     4     1     5     4
-1.6249422800e-02     4     1     5     5
-5.8278594000e-03     4     2     1     1
 9.3419204000e-03     4     2     1     3
 9.0995947900e-02     4     2     1     4
 1.3401300000e-05     4     2     1     5
 2.0885677500e-02     4     2     2     1
 4.4389660000e-03     4     2     2     3
-1.8521265450e-01     4     2     2     4
 8.9404000000e-06     4     2     2     5
 3.6209955000e-03     4     2     3     1
-1.1951767300e-02     4     2     3     3
-7.9023552200e-02     4     2     3     4
-9.5976000000e-06     4     2     3     5
-5.6200000000e-08     4     2     5     1
-3.6700000000e-08     4     2     5     3
-3.7678600000e-05     4     2     5     4
-8.2487951000e-03     4     2     5     5
 2.4976327000e-03     4     3     1     1
-9.3419204000e-03     4     3     1     2
 5.6370042400e-02     4     3     1     4
 5.1597000000e-06     4     3     1     5
-5.7209249000e-03     4     3     2     1
-4.4389660000e-03     4     3     2     2
-7.9023552200e-02     4     3     2     4
-9.5609000000e-06     4     3     2     5
 1.2154698000e-02     4     3     3     1
 1.1951767300e-02     4     3     3     2
-3.0446203040e-01     4     3     3     4
-2.3615400000e-05     4     3     3     5
-9.9800000000e-08     4     3     5     1
 3.6700000000e-08     4     3     5     2
 3.2079800000e-05     4     3     5     4
 7.0970389000e-03     4     3     5     5
 2.7901099000e-01     4     4     1     1
-9.0995947900e-02     4     4     1     2
-5.6370042400e-02     4     4     1     3
 7.3930800000e-05     4     4     1     5
-9.0995947900e-02     4     4     2     1
 1.8521265450e-01     4     4     2     2
 7.9023552200e-02     4     4     2     3
 3.7678600000e-05     4     4     2     5
-5.6370042400e-02     4     4     3     1
 7.9023552200e-02     4     4     3     2
 3.0446203040e-01     4     4     3     3
-3.2079800000e-05     4     4     3     5
 7.3930800000e-05     4     4     5     1
 3.7678600000e-05     4     4     5     2
-3.2079800000e-05     4     4     5     3
 3.3061059870e-01     4     4     5     5
 1.8813700000e-05     4     5     1     1
-1.3401300000e-05     4     5     1     2
-5.1597000000e-06     4     5     1     3
-7.3930800000e-05     4     5     1     4
-1.3457500000e-05     4     5     2     1
-8.9404000000e-06     4     5     2     2
 9.5609000000e-06     4     5     2     3
-3.7678600000e-05     4     5     2     4