&FCI NORB=  5,NELEC=  2,MS2=0,
 ORBSYM=1,1,1,1,1
 ISYM=1,
&END
 1.4859470850e-01     1     1     2     2
-4.2684473600e-02     1     1     2     3
 2.2238309900e-02     1     1     2     4
-3.0279240000e-04     1     1     2     5
-4.2684473600e-02     1     1     3     2
 2.7415334660e-01     1     1     3     3
 3.6475512000e-03     1     1     3     4
-4.9393400000e-05     1     1     3     5
 2.2238309900e-02     1     1     4     2
 3.6475512000e-03     1     1     4     3
 2.8064389460e-01     1     1     4     4
 7.2634600000e-05     1     1     4     5
-3.0279240000e-04     1     1     5     2
-4.9393400000e-05     1     1     5     3
 7.2634600000e-05     1     1     5     4
 2.8684136660e-01     1     1     5     5
-1.4859470850e-01     1     2     2     1
 1.5320364800e-02     1     2     2     3
-3.2117114700e-02     1     2     2     4
 4.5215360000e-04     1     2     2     5
 4.2684473600e-02     1     2     3     1
-7.7885453700e-02     1     2     3     3
-8.8405878000e-03     1     2     3     4
 1.1976840000e-04     1     2     3     5
-2.2238309900e-02     1     2     4     1
-1.3349116400e-02     1     2     4     3
-8.2414289600e-02     1     2     4     4
-1.2297470000e-04     1     2     4     5
 3.0279240000e-04     1     2     5     1
 1.8454120000e-04     1     2     5     3
-1.2456730000e-04     1     2     5     4
-9.1317136700e-02     1     2     5     5
 4.2684473600e-02     1     3     2     1
-1.5320364800e-02     1     3     2     2
 4.5085286000e-03     1     3     2     4
-6.4772800000e-05     1     3     2     5
-2.7415334660e-01     1     3     3     1
 7.7885453700e-02     1     3     3     2
-8.6627130000e-04     1     3     3     4
 3.1921800000e-05     1     3     3     5
-3.6475512000e-03     1     3     4     1
 1.3349116400e-02     1     3     4     2
 5.2717663200e-02     1     3     4     4
 3.3233400000e-05     1     3     4     5
 4.9393400000e-05     1     3     5     1
-1.8454120000e-04     1     3     5     2
 3.1624400000e-05     1     3     5     4
 5.5387767600e-02     1     3     5     5
-2.2238309900e-02     1     4     2     1
 3.2117114700e-02     1     4     2     2
-4.5085286000e-03     1     4     2     3
 1.5926000000e-06     1     4     2     5
-3.6475512000e-03     1     4     3     1
 8.8405878000e-03     1     4     3     2
 8.6627130000e-04     1     4     3     3
 1.6090000000e-06     1     4     3     5
-2.8064389460e-01     1     4     4     1
 8.2414289600e-02     1     4     4     2
-5.2717663200e-02     1     4     4     3
 7.2617100000e-05     1     4     4     5
-7.2634600000e-05     1     4     5     1
 1.2456730000e-04     1     4     5     2
-3.1624400000e-05     1     4     5     3
 3.6664210000e-03     1     4     5     5
 3.0279240000e-04     1     5     2     1
-4.5215360000e-04     1     5     2     2
 6.4772800000e-05     1     5     2     3
-1.5926000000e-06     1     5     2     4
 4.9393400000e-05     1     5     3     1
-1.1976840000e-04     1     5     3     2
-3.1921800000e-05     1     5     3     3
-1.6090000000e-06     1     5     3     4
-7.2634600000e-05     1     5     4     1
 1.2297470000e-04     1     5     4     2
-3.3233400000e-05     1     5     4     3
-7.2617100000e-05     1     5     4     4
-2.8684136660e-01     1     5     5     1
 9.1317136700e-02     1     5     5     2
-5.5387767600e-02     1     5     5     3
-3.6664210000e-03     1     5     5     4
-1.4859470850e-01     2     1     1     2
 4.2684473600e-02     2     1     1     3
-2.2238309900e-02     2     1     1     4
 3.0279240000e-04     2     1     1     5
 1.5320364800e-02     2     1     3     2
-7.7885453700e-02     2     1     3     3
-1.3349116400e-02     2     1     3     4
 1.8454120000e-04     2     1     3     5
-3.2117114700e-02     2     1     4     2
-8.8405878000e-03     2     1     4     3
-8.2414289600e-02     2     1     4     4
-1.2456730000e-04     2     1     4     5
 4.5215360000e-04     2     1     5     2
 1.1976840000e-04     2     1     5     3
-1.2297470000e-04     2     1     5     4
-9.1317136700e-02     2     1     5     5
 1.4859470850e-01     2     2     1     1
-1.5320364800e-02     2     2     1     3
 3.2117114700e-02     2     2     1     4
-4.5215360000e-04     2     2     1     5
-1.5320364800e-02     2     2     3     1
 1.7219501880e-01     2     2     3     3
 7.3895040000e-03     2     2     3     4
-9.4950800000e-05     2     2     3     5
 3.2117114700e-02     2     2     4     1
 7.3895040000e-03     2     2     4     3
 2.0709622630e-01     2     2     4     4
-1.7141800000e-05     2     2     4     5
-4.5215360000e-04     2     2     5     1
-9.4950800000e-05     2     2     5     3
-1.7141800000e-05     2     2     5     4
 2.0743566380e-01     2     2     5     5
-4.2684473600e-02     2     3     1     1
 1.5320364800e-02     2     3     1     2
-4.5085286000e-03     2     3     1     4
 6.4772800000e-05     2     3     1     5
 7.7885453700e-02     2     3     3     1
-1.7219501880e-01     2     3     3     2
-3.9503124500e-02     2     3     3     4
 5.3533430000e-04     2     3     3     5
 8.8405878000e-03     2     3     4     1
-7.3895040000e-03     2     3     4     2
-7.5184726000e-02     2     3     4     4
-5.1247500000e-05     2     3     4     5
-1.1976840000e-04     2     3     5     1
 9.4950800000e-05     2     3     5     2
-4.9594800000e-05     2     3     5     4
-7.8878902800e-02     2     3     5     5
 2.2238309900e-02     2     4     1     1
-3.2117114700e-02     2     4     1     2
 4.5085286000e-03     2     4     1     3
-1.5926000000e-06     2     4     1     5
 1.3349116400e-02     2     4     3     1
-7.3895040000e-03     2     4     3     2
 3.9503124500e-02     2     4     3     3
-1.6527000000e-06     2     4     3     5
 8.2414289600e-02     2     4     4     1
-2.0709622630e-01     2     4     4     2
 7.5184726000e-02     2     4     4     3
 4.8638180000e-04     2     4     4     5
 1.2297470000e-04     2     4     5     1
 1.7141800000e-05     2     4     5     2
 4.9594800000e-05     2     4     5     3
 3.6004724800e-02     2     4     5     5
-3.0279240000e-04     2     5     1     1
 4.5215360000e-04     2     5     1     2
-6.4772800000e-05     2     5     1     3
 1.5926000000e-06     2     5     1     4
-1.8454120000e-04     2     5     3     1
 9.4950800000e-05     2     5     3     2
-5.3533430000e-04     2     5     3     3
 1.6527000000e-06     2     5     3     4
 1.2456730000e-04     2     5     4     1
 1.7141800000e-05     2     5     4     2
 5.1247500000e-05     2     5     4     3
-4.8638180000e-04     2     5     4     4
 9.1317136700e-02     2     5     5     1
-2.0743566380e-01     2     5     5     2
 7.8878902800e-02     2     5     5     3
-3.6004724800e-02     2     5     5     4
 4.2684473600e-02     3     1     1     2
-2.7415334660e-01     3     1     1     3
-3.6475512000e-03     3     1     1     4
 4.9393400000e-05     3     1     1     5
-1.5320364800e-02     3     1     2     2
 7.7885453700e-02     3     1     2     3
 1.3349116400e-02     3     1     2     4
-1.8454120000e-04     3     1     2     5
 4.5085286000e-03     3     1     4     2
-8.6627130000e-04     3     1     4     3
 5.2717663200e-02     3     1     4     4
 3.1624400000e-05     3     1     4     5
-6.4772800000e-05     3     1     5     2
 3.1921800000e-05     3     1     5     3
 3.3233400000e-05     3     1     5     4
 5.5387767600e-02     3     1     5     5
-4.2684473600e-02     3     2     1     1
 7.7885453700e-02     3     2     1     3
 8.8405878000e-03     3     2     1     4
-1.1976840000e-04     3     2     1     5
 1.5320364800e-02     3     2     2     1
-1.7219501880e-01     3     2     2     3
-7.3895040000e-03     3     2     2     4
 9.4950800000e-05     3     2     2     5
-4.5085286000e-03     3     2     4     1
-3.9503124500e-02     3     2     4     3
-7.5184726000e-02     3     2     4     4
-4.9594800000e-05     3     2     4     5
 6.4772800000e-05     3     2     5     1
 5.3533430000e-04     3     2     5     3
-5.1247500000e-05     3     2     5     4
-7.8878902800e-02     3     2     5     5
 2.7415334660e-01     3     3     1     1
-7.7885453700e-02     3     3     1     2
 8.6627130000e-04     3     3     1     4
-3.1921800000e-05     3     3     1     5
-7.7885453700e-02     3     3     2     1
 1.7219501880e-01     3     3     2     2
 3.9503124500e-02     3     3     2     4
-5.3533430000e-04     3     3     2     5
 8.6627130000e-04     3     3     4     1
 3.9503124500e-02     3     3     4     2
 3.0386630160e-01     3     3     4     4
 1.3693150000e-04     3     3     4     5
-3.1921800000e-05     3     3     5     1
-5.3533430000e-04     3     3     5     2
 1.3693150000e-04     3     3     5     4
 3.1476651600e-01     3     3     5     5
 3.6475512000e-03     3     4     1     1
-8.8405878000e-03     3     4     1     2
-8.6627130000e-04     3     4     1     3
-1.6090000000e-06     3     4     1     5
-1.3349116400e-02     3     4     2     1
 7.3895040000e-03     3     4     2     2
-3.9503124500e-02     3     4     2     3
 1.6527000000e-06     3     4     2     5
-5.2717663200e-02     3     4     4     1
 7.5184726000e-02     3     4     4     2
-3.0386630160e-01     3     4     4     3
 1.4574070000e-04     3     4     4     5
-3.3233400000e-05     3     4     5     1
 5.1247500000e-05     3     4     5     2
-1.3693150000e-04     3     4     5     3
 1.0564863500e-02     3     4     5     5
-4.9393400000e-05     3     5     1     1
 1.1976840000e-04     3     5     1     2
 3.1921800000e-05     3     5     1     3
 1.6090000000e-06     3     5     1     4
 1.8454120000e-04     3     5     2     1
-9.4950800000e-05     3     5     2     2
 5.3533430000e-04     3     5     2     3
-1.6527000000e-06     3     5     2     4
-3.1624400000e-05     3     5     4     1
 4.9594800000e-05     3     5     4     2
-1.3693150000e-04     3     5     4     3
-1.4574070000e-04     3     5     4     4
-5.5387767600e-02     3     5     5     1
 7.8878902800e-02     3     5     5     2
-3.1476651600e-01     3     5     5     3
-1.0564863500e-02     3     5     5     4
-2.2238309900e-02     4     1     1     2
-3.6475512000e-03     4     1     1     3
-2.8064389460e-01     4     1     1     4
-7.2634600000e-05     4     1     1     5
 3.2117114700e-02     4     1     2     2
 8.8405878000e-03     4     1     2     3
 8.2414289600e-02     4     1     2     4
 1.2456730000e-04     4     1     2     5
-4.5085286000e-03     4     1     3     2
 8.6627130000e-04     4     1     3     3
-5.2717663200e-02     4     1     3     4
-3.1624400000e-05     4     1     3     5
 1.5926000000e-06     4     1     5     2
 1.6090000000e-06     4     1     5     3
 7.2617100000e-05     4     1     5     4
 3.6664210000e-03     4     1     5     5
 2.2238309900e-02     4     2     1     1
 1.3349116400e-02     4     2     1     3
 8.2414289600e-02     4     2     1     4
 1.2297470000e-04     4     2     1     5
-3.2117114700e-02     4     2     2     1
-7.3895040000e-03     4     2     2     3
-2.0709622630e-01     4     2     2     4
 1.7141800000e-05     4     2     2     5
 4.5085286000e-03     4     2     3     1
 3.9503124500e-02     4     2     3     3
 7.5184726000e-02     4     2     3     4
 4.9594800000e-05     4     2     3     5
-1.5926000000e-06     4     2     5     1
-1.6527000000e-06     4     2     5     3
 4.8638180000e-04     4     2     5     4
 3.6004724800e-02     4     2     5     5
 3.6475512000e-03     4     3     1     1
-1.3349116400e-02     4     3     1     2
-5.2717663200e-02     4     3     1     4
-3.3233400000e-05     4     3     1     5
-8.8405878000e-03     4     3     2     1
 7.3895040000e-03     4     3     2     2
 7.5184726000e-02     4     3     2     4
 5.1247500000e-05     4     3     2     5
-8.6627130000e-04     4     3     3     1
-3.9503124500e-02     4     3     3     2
-3.0386630160e-01     4     3     3     4
-1.3693150000e-04     4     3     3     5
-1.6090000000e-06     4     3     5     1
 1.6527000000e-06     4     3     5     2
 1.4574070000e-04     4     3     5     4
 1.0564863500e-02     4     3     5     5
 2.8064389460e-01     4     4     1     1
-8.2414289600e-02     4     4     1     2
 5.2717663200e-02     4     4     1     3
-7.2617100000e-05     4     4     1     5
-8.2414289600e-02     4     4     2     1
 2.0709622630e-01     4     4     2     2
-7.5184726000e-02     4     4     2     3
-4.8638180000e-04     4     4     2     5
 5.2717663200e-02     4     4     3     1
-7.5184726000e-02     4     4     3     2
 3.0386630160e-01     4     4     3     3
-1.4574070000e-04     4     4     3     5
-7.2617100000e-05     4     4     5     1
-4.8638180000e-04     4     4     5     2
-1.4574070000e-04     4     4     5     3
 3.2229775400e-01     4     4     5     5
 7.2634600000e-05     4     5     1     1
-1.2297470000e-04     4     5     1     2
 3.3233400000e-05     4     5     1     3
 7.2617100000e-05     4     5     1     4
-1.2456730000e-04     4     5     2     1
-1.7141800000e-05     4     5     2     2
-5.1247500000e-05     4     5     2     3
 4.8638180000e-04     4     5     2     4
 3.1624400000e-05     4     5     3     1
-4.9594800000e-05     4     5     3     2
 1.3693150000e-04     4     5     3     3
 1.4574070000e-04     4     5     3     4
-3.6664210000e-03     4     5     5     1
-3.6004724800e-02     4     5     5     2
-1.0564863500e-02     4     5     5     3
-3.2229775400e-01     4     5     5     4
 3.0279240000e-04     5     1     1     2
 4.9393400000e-05     5     1     1     3
-7.2634600000e-05     5     1     1     4
-2.8684136660e-01     5     1     1     5
-4.5215360000e-04     5     1     2     2
-1.1976840000e-04     5     1     2     3
 1.2297470000e-04     5     1     2     4
 9.1317136700e-02     5     1     2     5
 6.4772800000e-05     5     1     3     2
-3.1921800000e-05     5     1     3     3
-3.3233400000e-05     5     1     3     4
-5.5387767600e-02     5     1     3     5
-1.5926000000e-06     5     1     4     2
-1.6090000000e-06     5     1     4     3
-7.2617100000e-05     5     1     4     4
-3.6664210000e-03     5     1     4     5
-3.0279240000e-04     5     2     1     1
-1.8454120000e-04     5     2     1     3
 1.2456730000e-04     5     2     1     4
 9.1317136700e-02     5     2     1     5
 4.5215360000e-04     5     2     2     1
 9.4950800000e-05     5     2     2     3
 1.7141800000e-05     5     2     2     4
-2.0743566380e-01     5     2     2     5
-6.4772800000e-05     5     2     3     1
-5.3533430000e-04     5     2     3     3
 5.1247500000e-05     5     2     3     4
 7.8878902800e-02     5     2     3     5
 1.5926000000e-06     5     2     4     1
 1.6527000000e-06     5     2     4     3
-4.8638180000e-04     5     2     4     4
-3.6004724800e-02     5     2     4     5
-4.9393400000e-05     5     3     1     1
 1.8454120000e-04     5     3     1     2
-3.1624400000e-05     5     3     1     4
-5.5387767600e-02     5     3     1     5
 1.1976840000e-04     5     3     2     1
-9.4950800000e-05     5     3     2     2
 4.9594800000e-05     5     3     2     4
 7.8878902800e-02     5     3     2     5
 3.1921800000e-05     5     3     3     1
 5.3533430000e-04     5     3     3     2
-1.3693150000e-04     5     3     3     4
-3.1476651600e-01     5     3     3     5
 1.6090000000e-06     5     3     4     1
-1.6527000000e-06     5     3     4     2
-1.4574070000e-04     5     3     4     4
-1.0564863500e-02     5     3     4     5
 7.2634600000e-05     5     4     1     1
-1.2456730000e-04     5     4     1     2
 3.1624400000e-05     5     4     1     3
-3.6664210000e-03     5     4     1     5
-1.2297470000e-04     5     4     2     1
-1.7141800000e-05     5     4     2     2
-4.9594800000e-05     5     4     2     3
-3.6004724800e-02     5     4     2     5
 3.3233400000e-05     5     4     3     1
-5.1247500000e-05     5     4     3     2
 1.3693150000e-04     5     4     3     3
-1.0564863500e-02     5     4     3     5
 7.2617100000e-05     5     4     4     1
 4.8638180000e-04     5     4     4     2
 1.4574070000e-04     5     4     4     3
-3.2229775400e-01     5     4     4     5
 2.8684136660e-01     5     5     1     1
-9.1317136700e-02     5     5     1     2
 5.5387767600e-02     5     5     1     3
 3.6664210000e-03     5     5     1     4
-9.1317136700e-02     5     5     2     1
 2.0743566380e-01     5     5     2     2
-7.8878902800e-02     5     5     2     3
 3.6004724800e-02     5     5     2     4
 5.5387767600e-02     5     5     3     1
-7.8878902800e-02     5     5     3     2
 3.1476651600e-01     5     5     3     3
 1.0564863500e-02     5     5     3     4
 3.6664210000e-03     5     5     4     1
 3.6004724800e-02     5     5     4     2
 1.0564863500e-02     5     5     4     3
 3.2229775400e-01     5     5     4     4
0.0 0 0 0 0
 1.4859470850e-01     1     1     2     2
-4.2684473600e-02     1     1     2     3
 2.2238309900e-02     1     1     2     4
-3.0279240000e-04     1     1     2     5
-4.2684473600e-02     1     1     3     2
 2.7415334660e-01     1     1     3     3
 3.6475512000e-03     1     1     3     4
-4.9393400000e-05     1     1     3     5
 2.2238309900e-02     1     1     4     2
 3.6475512000e-03     1     1     4     3
 2.8064389460e-01     1     1     4     4
 7.2634600000e-05     1     1     4     5
-3.0279240000e-04     1     1     5     2
-4.9393400000e-05     1     1     5     3
 7.2634600000e-05     1     1     5     4
 2.8684136660e-01     1     1     5     5
-1.4859470850e-01     1     2     2     1
 1.5320364800e-02     1     2     2     3
-3.2117114700e-02     1     2     2     4
 4.5215360000e-04     1     2     2     5
 4.2684473600e-02     1     2     3     1
-7.7885453700e-02     1     2     3     3
-8.8405878000e-03     1     2     3     4
 1.1976840000e-04     1     2     3     5
-2.2238309900e-02     1     2     4     1
-1.3349116400e-02     1     2     4     3
-8.2414289600e-02     1     2     4     4
-1.2297470000e-04     1     2     4     5
 3.0279240000e-04     1     2     5     1
 1.8454120000e-04     1     2     5     3
-1.2456730000e-04     1     2     5     4
-9.1317136700e-02     1     2     5     5
 4.2684473600e-02     1     3     2     1
-1.5320364800e-02     1     3     2     2
 4.5085286000e-03     1     3     2     4
-6.4772800000e-05     1     3     2     5
-2.7415334660e-01     1     3     3     1
 7.7885453700e-02     1     3     3     2
-8.6627130000e-04     1     3     3     4
 3.1921800000e-05     1     3     3     5
-3.6475512000e-03     1     3     4     1
 1.3349116400e-02     1     3     4     2
 5.2717663200e-02     1     3     4     4
 3.3233400000e-05     1     3     4     5
 4.9393400000e-05     1     3     5     1
-1.8454120000e-04     1     3     5     2
 3.1624400000e-05     1     3     5     4
 5.5387767600e-02     1     3     5     5
-2.2238309900e-02     1     4     2     1
 3.2117114700e-02     1     4     2     2
-4.5085286000e-03     1     4     2     3
 1.5926000000e-06     1     4     2     5
-3.6475512000e-03     1     4     3     1
 8.8405878000e-03     1     4     3     2
 8.6627130000e-04     1     4     3     3
 1.6090000000e-06     1     4     3     5
-2.8064389460e-01     1     4     4     1
 8.2414289600e-02     1     4     4     2
-5.2717663200e-02     1     4     4     3
 7.2617100000e-05     1     4     4     5
-7.2634600000e-05     1     4     5     1
 1.2456730000e-04     1     4     5     2
-3.1624400000e-05     1     4     5     3
 3.6664210000e-03     1     4     5     5
 3.0279240000e-04     1     5     2     1
-4.5215360000e-04     1     5     2     2
 6.4772800000e-05     1     5     2     3
-1.5926000000e-06     1     5     2     4
 4.9393400000e-05     1     5     3     1
-1.1976840000e-04     1     5     3     2
-3.1921800000e-05     1     5     3     3
-1.6090000000e-06     1     5     3     4
-7.2634600000e-05     1     5     4     1
 1.2297470000e-04     1     5     4     2
-3.3233400000e-05     1     5     4     3
-7.2617100000e-05     1     5     4     4
-2.8684136660e-01     1     5     5     1
 9.1317136700e-02     1     5     5     2
-5.5387767600e-02     1     5     5     3
-3.6664210000e-03     1     5     5     4
-1.4859470850e-01     2     1     1     2
 4.2684473600e-02     2     1     1     3
-2.2238309900e-02     2     1     1     4
 3.0279240000e-04     2     1     1     5
 1.5320364800e-02     2     1     3     2
-7.7885453700e-02     2     1     3     3
-1.3349116400e-02     2     1     3     4
 1.8454120000e-04     2     1     3     5
-3.2117114700e-02     2     1     4     2
-8.8405878000e-03     2     1     4     3
-8.2414289600e-02     2     1     4     4
-1.2456730000e-04     2     1     4     5
 4.5215360000e-04     2     1     5     2
 1.1976840000e-04     2     1     5     3
-1.2297470000e-04     2     1     5     4
-9.1317136700e-02     2     1     5     5
 1.4859470850e-01     2     2     1     1
-1.5320364800e-02     2     2     1     3
 3.2117114700e-02     2     2     1     4
-4.5215360000e-04     2     2     1     5
-1.5320364800e-02     2     2     3     1
 1.7219501880e-01     2     2     3     3
 7.3895040000e-03     2     2     3     4
-9.4950800000e-05     2     2     3     5
 3.2117114700e-02     2     2     4     1
 7.3895040000e-03     2     2     4     3
 2.0709622630e-01     2     2     4     4
-1.7141800000e-05     2     2     4     5
-4.5215360000e-04     2     2     5     1
-9.4950800000e-05     2     2     5     3
-1.7141800000e-05     2     2     5     4
 2.0743566380e-01     2     2     5     5
-4.2684473600e-02     2     3     1     1
 1.5320364800e-02     2     3     1     2
-4.5085286000e-03     2     3     1     4
 6.4772800000e-05     2     3     1     5
 7.7885453700e-02     2     3     3     1
-1.7219501880e-01     2     3     3     2
-3.9503124500e-02     2     3     3     4
 5.3533430000e-04     2     3     3     5
 8.8405878000e-03     2     3     4     1
-7.3895040000e-03     2     3     4     2
-7.5184726000e-02     2     3     4     4
-5.1247500000e-05     2     3     4     5
-1.1976840000e-04     2     3     5     1
 9.4950800000e-05     2     3     5     2
-4.9594800000e-05     2     3     5     4
-7.8878902800e-02     2     3     5     5
 2.2238309900e-02     2     4     1     1
-3.2117114700e-02     2     4     1     2
 4.5085286000e-03     2     4     1     3
-1.5926000000e-06     2     4     1     5
 1.3349116400e-02     2     4     3     1
-7.3895040000e-03     2     4     3     2
 3.9503124500e-02     2     4     3     3
-1.6527000000e-06     2     4     3     5
 8.2414289600e-02     2     4     4     1
-2.0709622630e-01     2     4     4     2
 7.5184726000e-02     2     4     4     3
 4.8638180000e-04     2     4     4     5
 1.2297470000e-04     2     4     5     1
 1.7141800000e-05     2     4     5     2
 4.9594800000e-05     2     4     5     3
 3.6004724800e-02     2     4     5     5
-3.0279240000e-04     2     5     1     1
 4.5215360000e-04     2     5     1     2
-6.4772800000e-05     2     5     1     3
 1.5926000000e-06     2     5     1     4
-1.8454120000e-04     2     5     3     1
 9.4950800000e-05     2     5     3     2
-5.3533430000e-04     2     5     3     3
 1.6527000000e-06     2     5     3     4
 1.2456730000e-04     2     5     4     1
 1.7141800000e-05     2     5     4     2
 5.1247500000e-05     2     5     4     3
-4.8638180000e-04     2     5     4     4
 9.1317136700e-02     2     5     5     1
-2.0743566380e-01     2     5     5     2
 7.8878902800e-02     2     5     5     3
-3.6004724800e-02     2     5     5     4
 4.2684473600e-02     3     1     1     2
-2.7415334660e-01     3     1     1     3
-3.6475512000e-03     3     1     1     4
 4.9393400000e-05     3     1     1     5
-1.5320364800e-02     3     1     2     2
 7.7885453700e-02     3     1     2     3
 1.3349116400e-02     3     1     2     4
-1.8454120000e-04     3     1     2     5
 4.5085286000e-03     3     1     4     2
-8.6627130000e-04     3     1     4     3
 5.2717663200e-02     3     1     4     4
 3.1624400000e-05     3     1     4     5
-6.4772800000e-05     3     1     5     2
 3.1921800000e-05     3     1     5     3
 3.3233400000e-05     3     1     5     4
 5.5387767600e-02     3     1     5     5
-4.2684473600e-02     3     2     1     1
 7.7885453700e-02     3     2     1     3
 8.8405878000e-03     3     2     1     4
-1.1976840000e-04     3     2     1     5
 1.5320364800e-02     3     2     2     1
-1.7219501880e-01     3     2     2     3
-7.3895040000e-03     3     2     2     4
 9.4950800000e-05     3     2     2     5
-4.5085286000e-03     3     2     4     1
-3.9503124500e-02     3     2     4     3
-7.5184726000e-02     3     2     4     4
-4.9594800000e-05     3     2     4     5
 6.4772800000e-05     3     2     5     1
 5.3533430000e-04     3     2     5     3
-5.1247500000e-05     3     2     5     4
-7.8878902800e-02     3     2     5     5
 2.7415334660e-01     3     3     1     1
-7.7885453700e-02     3     3     1     2
 8.6627130000e-04     3     3     1     4
-3.1921800000e-05     3     3     1     5
-7.7885453700e-02     3     3     2     1
 1.7219501880e-01     3     3     2     2
 3.9503124500e-02     3     3     2     4
-5.3533430000e-04     3     3     2     5
 8.6627130000e-04     3     3     4     1
 3.9503124500e-02     3     3     4     2
 3.0386630160e-01     3     3     4     4
 1.3693150000e-04     3     3     4     5
-3.1921800000e-05     3     3     5     1
-5.3533430000e-04     3     3     5     2
 1.3693150000e-04     3     3     5     4
 3.1476651600e-01     3     3     5     5
 3.6475512000e-03     3     4     1     1
-8.8405878000e-03     3     4     1     2
-8.6627130000e-04     3     4     1     3
-1.6090000000e-06     3     4     1     5
-1.3349116400e-02     3     4     2     1
 7.3895040000e-03     3     4     2     2
-3.9503124500e-02     3     4     2     3
 1.6527000000e-06     3     4     2     5
-5.2717663200e-02     3     4     4     1
 7.5184726000e-02     3     4     4     2
-3.0386630160e-01     3     4     4     3
 1.4574070000e-04     3     4     4     5
-3.3233400000e-05     3     4     5     1
 5.1247500000e-05     3     4     5     2
-1.3693150000e-04     3     4     5     3
 1.0564863500e-02     3     4     5     5
-4.9393400000e-05     3     5     1     1
 1.1976840000e-04     3     5     1     2
 3.1921800000e-05     3     5     1     3
 1.6090000000e-06     3     5     1     4
 1.8454120000e-04     3     5     2     1
-9.4950800000e-05     3     5     2     2
 5.3533430000e-04     3     5     2     3
-1.6527000000e-06     3     5     2     4
-3.1624400000e-05     3     5     4     1
 4.9594800000e-05     3     5     4     2
-1.3693150000e-04     3     5     4     3
-1.4574070000e-04     3     5     4     4
-5.5387767600e-02     3     5     5     1
 7.8878902800e-02     3     5     5     2
-3.1476651600e-01     3     5     5     3
-1.0564863500e-02     3     5     5     4
-2.2238309900e-02     4     1     1     2
-3.6475512000e-03     4     1     1     3
-2.8064389460e-01     4     1     1     4
-7.2634600000e-05     4     1     1     5
 3.2117114700e-02     4     1     2     2
 8.8405878000e-03     4     1     2     3
 8.2414289600e-02     4     1     2     4
 1.2456730000e-04     4     1     2     5
-4.5085286000e-03     4     1     3     2
 8.6627130000e-04     4     1     3     3
-5.2717663200e-02     4     1     3     4
-3.1624400000e-05     4     1     3     5
 1.5926000000e-06     4     1     5     2
 1.6090000000e-06     4     1     5     3
 7.2617100000e-05     4     1     5     4
 3.6664210000e-03     4     1     5     5
 2.2238309900e-02     4     2     1     1
 1.3349116400e-02     4     2     1     3
 8.2414289600e-02     4     2     1     4
 1.2297470000e-04     4     2     1     5
-3.2117114700e-02     4     2     2     1
-7.3895040000e-03     4     2     2     3
-2.0709622630e-01     4     2     2     4
 1.7141800000e-05     4     2     2     5
 4.5085286000e-03     4     2     3     1
 3.9503124500e-02     4     2     3     3
 7.5184726000e-02     4     2     3     4
 4.9594800000e-05     4     2     3     5
-1.5926000000e-06     4     2     5     1
-1.6527000000e-06     4     2     5     3
 4.8638180000e-04     4     2     5     4
 3.6004724800e-02     4     2     5     5
 3.6475512000e-03     4     3     1     1
-1.3349116400e-02     4     3     1     2
-5.2717663200e-02     4     3     1     4
-3.3233400000e-05     4     3     1     5
-8.8405878000e-03     4     3     2     1
 7.3895040000e-03     4     3     2     2
 7.5184726000e-02     4     3     2     4
 5.1247500000e-05     4     3     2     5
-8.6627130000e-04     4     3     3     1
-3.9503124500e-02     4     3     3     2
-3.0386630160e-01     4     3     3     4
-1.3693150000e-04     4     3     3     5
-1.6090000000e-06     4     3     5     1
 1.6527000000e-06     4     3     5     2
 1.4574070000e-04     4     3     5     4
 1.0564863500e-02     4     3     5     5
 2.8064389460e-01     4     4     1     1
-8.2414289600e-02     4     4     1     2
 5.2717663200e-02     4     4     1     3
-7.2617100000e-05     4     4     1     5
-8.2414289600e-02     4     4     2     1
 2.0709622630e-01     4     4     2     2
-7.5184726000e-02     4     4     2     3
-4.8638180000e-04     4     4     2     5
 5.2717663200e-02     4     4     3     1
-7.5184726000e-02     4     4     3     2
 3.0386630160e-01     4     4     3     3
-1.4574070000e-04     4     4     3     5
-7.2617100000e-05     4     4     5     1
-4.8638180000e-04     4     4     5     2
-1.4574070000e-04     4     4     5     3
 3.2229775400e-01     4     4     5     5
 7.2634600000e-05     4     5     1     1
-1.2297470000e-04     4     5     1     2
 3.3233400000e-05     4     5     1     3
 7.2617100000e-05     4     5     1     4
-1.2456730000e-04     4     5     2     1
-1.7141800000e-05     4     5     2     2
-5.1247500000e-05     4     5     2     3
 4.8638180000e-04     4     5     2     4