&FCI NORB=  5,NELEC=  2,MS2=0,
 ORBSYM=1,1,1,1,1
 ISYM=1,
&END
 3.0349617760e-01     1     1     2     2
-1.8401820000e-04     1     1     2     3
-3.5237250000e-04     1     1     2     4
-1.1359352400e-02     1     1     2     5
-1.8401820000e-04     1     1     3     2
 3.3310435000e-01     1     1     3     3
 2.6140000000e-06     1     1     3     4
 7.6402900000e-05     1     1     3     5
-3.5237250000e-04     1     1     4     2
 2.6140000000e-06     1     1     4     3
 3.3311070840e-01     1     1     4     4
 1.4643640000e-04     1     1     4     5
-1.1359352400e-02     1     1     5     2
 7.6402900000e-05     1     1     5     3
 1.4643640000e-04     1     1     5     4
 3.3861131890e-01     1     1     5     5
-3.0349617760e-01     1     2     2     1
 6.6334790000e-04     1     2     2     3
 1.2712274000e-03     1     2     2     4
 4.0576678000e-02     1     2     2     5
 1.8401820000e-04     1     2     3     1
-8.3468492700e-02     1     2     3     3
-1.5136000000e-06     1     2     3     4
-4.2176000000e-05     1     2     3     5
 3.5237250000e-04     1     2     4     1
-1.6061000000e-06     1     2     4     3
-8.3471819800e-02     1     2     4     4
-8.0833600000e-05     1     2     4     5
 1.1359352400e-02     1     2     5     1
-4.4498500000e-05     1     2     5     3
-8.5312800000e-05     1     2     5     4
-8.6456998000e-02     1     2     5     5
 1.8401820000e-04     1     3     2     1
-6.6334790000e-04     1     3     2     2
 9.2500000000e-08     1     3     2     4
 2.3225000000e-06     1     3     2     5
-3.3310435000e-01     1     3     3     1
 8.3468492700e-02     1     3     3     2
 1.2810078000e-03     1     3     3     4
 4.1037968000e-02     1     3     3     5
-2.6140000000e-06     1     3     4     1
 1.6061000000e-06     1     3     4     2
-6.6831930000e-04     1     3     4     4
-1.3680000000e-07     1     3     4     5
-7.6402900000e-05     1     3     5     1
 4.4498500000e-05     1     3     5     2
-6.3000000000e-08     1     3     5     4
-6.7510970000e-04     1     3     5     5
 3.5237250000e-04     1     4     2     1
-1.2712274000e-03     1     4     2     2
-9.2500000000e-08     1     4     2     3
 4.4792000000e-06     1     4     2     5
-2.6140000000e-06     1     4     3     1
 1.5136000000e-06     1     4     3     2
-1.2810078000e-03     1     4     3     3
-7.3800000000e-08     1     4     3     5
-3.3311070840e-01     1     4     4     1
 8.3471819800e-02     1     4     4     2
 6.6831930000e-04     1     4     4     3
 4.1038127500e-02     1     4     4     5
-1.4643640000e-04     1     4     5     1
 8.5312800000e-05     1     4     5     2
 6.3000000000e-08     1     4     5     3
-1.2940190000e-03     1     4     5     5
 1.1359352400e-02     1     5     2     1
-4.0576678000e-02     1     5     2     2
-2.3225000000e-06     1     5     2     3
-4.4792000000e-06     1     5     2     4
-7.6402900000e-05     1     5     3     1
 4.2176000000e-05     1     5     3     2
-4.1037968000e-02     1     5     3     3
 7.3800000000e-08     1     5     3     4
-1.4643640000e-04     1     5     4     1
 8.0833600000e-05     1     5     4     2
 1.3680000000e-07     1     5     4     3
-4.1038127500e-02     1     5     4     4
-3.3861131890e-01     1     5     5     1
 8.6456998000e-02     1     5     5     2
 6.7510970000e-04     1     5     5     3
 1.2940190000e-03     1     5     5     4
-3.0349617760e-01     2     1     1     2
 1.8401820000e-04     2     1     1     3
 3.5237250000e-04     2     1     1     4
 1.1359352400e-02     2     1     1     5
 6.6334790000e-04     2     1     3     2
-8.3468492700e-02     2     1     3     3
-1.6061000000e-06     2     1     3     4
-4.4498500000e-05     2     1     3     5
 1.2712274000e-03     2     1     4     2
-1.5136000000e-06     2     1     4     3
-8.3471819800e-02     2     1     4     4
-8.5312800000e-05     2     1     4     5
 4.0576678000e-02     2     1     5     2
-4.2176000000e-05     2     1     5     3
-8.0833600000e-05     2     1     5     4
-8.6456998000e-02     2     1     5     5
 3.0349617760e-01     2     2     1     1
-6.6334790000e-04     2     2     1     3
-1.2712274000e-03     2     2     1     4
-4.0576678000e-02     2     2     1     5
-6.6334790000e-04     2     2     3     1
 3.4590816040e-01     2     2     3     3
 3.7086000000e-06     2     2     3     4
 1.0959510000e-04     2     2     3     5
-1.2712274000e-03     2     2     4     1
 3.7086000000e-06     2     2     4     3
 3.4591637110e-01     2     2     4     4
 2.1004450000e-04     2     2     4     5
-4.0576678000e-02     2     2     5     1
 1.0959510000e-04     2     2     5     3
 2.1004450000e-04     2     2     5     4
 3.5355639840e-01     2     2     5     5
-1.8401820000e-04     2     3     1     1
 6.6334790000e-04     2     3     1     2
-9.2500000000e-08     2     3     1     4
-2.3225000000e-06     2     3     1     5
 8.3468492700e-02     2     3     3     1
-3.4590816040e-01     2     3     3     2
 2.5775990000e-04     2     3     3     4
 8.3414182000e-03     2     3     3     5
 1.5136000000e-06     2     3     4     1
-3.7086000000e-06     2     3     4     2
-1.3465790000e-04     2     3     4     4
 4.7500000000e-08     2     3     4     5
 4.2176000000e-05     2     3     5     1
-1.0959510000e-04     2     3     5     2
 1.7000000000e-08     2     3     5     4
-1.3476900000e-04     2     3     5     5
-3.5237250000e-04     2     4     1     1
 1.2712274000e-03     2     4     1     2
 9.2500000000e-08     2     4     1     3
-4.4792000000e-06     2     4     1     5
 1.6061000000e-06     2     4     3     1
-3.7086000000e-06     2     4     3     2
-2.5775990000e-04     2     4     3     3
 3.0500000000e-08     2     4     3     5
 8.3471819800e-02     2     4     4     1
-3.4591637110e-01     2     4     4     2
 1.3465790000e-04     2     4     4     3
 8.3414765000e-03     2     4     4     5
 8.0833600000e-05     2     4     5     1
-2.1004450000e-04     2     4     5     2
-1.7000000000e-08     2     4     5     3
-2.5794080000e-04     2     4     5     5
-1.1359352400e-02     2     5     1     1
 4.0576678000e-02     2     5     1     2
 2.3225000000e-06     2     5     1     3
 4.4792000000e-06     2     5     1     4
 4.4498500000e-05     2     5     3     1
-1.0959510000e-04     2     5     3     2
-8.3414182000e-03     2     5     3     3
-3.0500000000e-08     2     5     3     4
 8.5312800000e-05     2     5     4     1
-2.1004450000e-04     2     5     4     2
-4.7500000000e-08     2     5     4     3
-8.3414765000e-03     2     5     4     4
 8.6456998000e-02     2     5     5     1
-3.5355639840e-01     2     5     5     2
 1.3476900000e-04     2     5     5     3
 2.5794080000e-04     2     5     5     4
 1.8401820000e-04     3     1     1     2
-3.3310435000e-01     3     1     1     3
-2.6140000000e-06     3     1     1     4
-7.6402900000e-05     3     1     1     5
-6.6334790000e-04     3     1     2     2
 8.3468492700e-02     3     1     2     3
 1.6061000000e-06     3     1     2     4
 4.4498500000e-05     3     1     2     5
 9.2500000000e-08     3     1     4     2
 1.2810078000e-03     3     1     4     3
-6.6831930000e-04     3     1     4     4
-6.3000000000e-08     3     1     4     5
 2.3225000000e-06     3     1     5     2
 4.1037968000e-02     3     1     5     3
-1.3680000000e-07     3     1     5     4
-6.7510970000e-04     3     1     5     5
-1.8401820000e-04     3     2     1     1
 8.3468492700e-02     3     2     1     3
 1.5136000000e-06     3     2     1     4
 4.2176000000e-05     3     2     1     5
 6.6334790000e-04     3     2     2     1
-3.4590816040e-01     3     2     2     3
-3.7086000000e-06     3     2     2     4
-1.0959510000e-04     3     2     2     5
-9.2500000000e-08     3     2     4     1
 2.5775990000e-04     3     2     4     3
-1.3465790000e-04     3     2     4     4
 1.7000000000e-08     3     2     4     5
-2.3225000000e-06     3     2     5     1
 8.3414182000e-03     3     2     5     3
 4.7500000000e-08     3     2     5     4
-1.3476900000e-04     3     2     5     5
 3.3310435000e-01     3     3     1     1
-8.3468492700e-02     3     3     1     2
-1.2810078000e-03     3     3     1     4
-4.1037968000e-02     3     3     1     5
-8.3468492700e-02     3     3     2     1
 3.4590816040e-01     3     3     2     2
-2.5775990000e-04     3     3     2     4
-8.3414182000e-03     3     3     2     5
-1.2810078000e-03     3     3     4     1
-2.5775990000e-04     3     3     4     2
 3.5587830850e-01     3     3     4     4
 1.6816630000e-04     3     3     4     5
-4.1037968000e-02     3     3     5     1
-8.3414182000e-03     3     3     5     2
 1.6816630000e-04     3     3     5     4
 3.6207947870e-01     3     3     5     5
 2.6140000000e-06     3     4     1     1
-1.5136000000e-06     3     4     1     2
 1.2810078000e-03     3     4     1     3
 7.3800000000e-08     3     4     1     5
-1.6061000000e-06     3     4     2     1
 3.7086000000e-06     3     4     2     2
 2.5775990000e-04     3     4     2     3
-3.0500000000e-08     3     4     2     5
 6.6831930000e-04     3     4     4     1
 1.3465790000e-04     3     4     4     2
-3.5587830850e-01     3     4     4     3
-8.7743500000e-05     3     4     4     5
 1.3680000000e-07     3     4     5     1
-4.7500000000e-08     3     4     5     2
-1.6816630000e-04     3     4     5     3
 3.0174000000e-06     3     4     5     5
 7.6402900000e-05     3     5     1     1
-4.2176000000e-05     3     5     1     2
 4.1037968000e-02     3     5     1     3
-7.3800000000e-08     3     5     1     4
-4.4498500000e-05     3     5     2     1
 1.0959510000e-04     3     5     2     2
 8.3414182000e-03     3     5     2     3
 3.0500000000e-08     3     5     2     4
 6.3000000000e-08     3     5     4     1
-1.7000000000e-08     3     5     4     2
-1.6816630000e-04     3     5     4     3
 8.7743500000e-05     3     5     4     4
 6.7510970000e-04     3     5     5     1
 1.3476900000e-04     3     5     5     2
-3.6207947870e-01     3     5     5     3
-3.0174000000e-06     3     5     5     4
 3.5237250000e-04     4     1     1     2
-2.6140000000e-06     4     1     1     3
-3.3311070840e-01     4     1     1     4
-1.4643640000e-04     4     1     1     5
-1.2712274000e-03     4     1     2     2
 1.5136000000e-06     4     1     2     3
 8.3471819800e-02     4     1     2     4
 8.5312800000e-05     4     1     2     5
-9.2500000000e-08     4     1     3     2
-1.2810078000e-03     4     1     3     3
 6.6831930000e-04     4     1     3     4
 6.3000000000e-08     4     1     3     5
 4.4792000000e-06     4     1     5     2
-7.3800000000e-08     4     1     5     3
 4.1038127500e-02     4     1     5     4
-1.2940190000e-03     4     1     5     5
-3.5237250000e-04     4     2     1     1
 1.6061000000e-06     4     2     1     3
 8.3471819800e-02     4     2     1     4
 8.0833600000e-05     4     2     1     5
 1.2712274000e-03     4     2     2     1
-3.7086000000e-06     4     2     2     3
-3.4591637110e-01     4     2     2     4
-2.1004450000e-04     4     2     2     5
 9.2500000000e-08     4     2     3     1
-2.5775990000e-04     4     2     3     3
 1.3465790000e-04     4     2     3     4
-1.7000000000e-08     4     2     3     5
-4.4792000000e-06     4     2     5     1
 3.0500000000e-08     4     2     5     3
 8.3414765000e-03     4     2     5     4
-2.5794080000e-04     4     2     5     5
 2.6140000000e-06     4     3     1     1
-1.6061000000e-06     4     3     1     2
 6.6831930000e-04     4     3     1     4
 1.3680000000e-07     4     3     1     5
-1.5136000000e-06     4     3     2     1
 3.7086000000e-06     4     3     2     2
 1.3465790000e-04     4     3     2     4
-4.7500000000e-08     4     3     2     5
 1.2810078000e-03     4     3     3     1
 2.5775990000e-04     4     3     3     2
-3.5587830850e-01     4     3     3     4
-1.6816630000e-04     4     3     3     5
 7.3800000000e-08     4     3     5     1
-3.0500000000e-08     4     3     5     2
-8.7743500000e-05     4     3     5     4
 3.0174000000e-06     4     3     5     5
 3.3311070840e-01     4     4     1     1
-8.3471819800e-02     4     4     1     2
-6.6831930000e-04     4     4     1     3
-4.1038127500e-02     4     4     1     5
-8.3471819800e-02     4     4     2     1
 3.4591637110e-01     4     4     2     2
-1.3465790000e-04     4     4     2     3
-8.3414765000e-03     4     4     2     5
-6.6831930000e-04     4     4     3     1
-1.3465790000e-04     4     4     3     2
 3.5587830850e-01     4     4     3     3
 8.7743500000e-05     4     4     3     5
-4.1038127500e-02     4     4     5     1
-8.3414765000e-03     4     4     5     2
 8.7743500000e-05     4     4     5     3
 3.6208653490e-01     4     4     5     5
 1.4643640000e-04     4     5     1     1
-8.0833600000e-05     4     5     1     2
-1.3680000000e-07     4     5     1     3
 4.1038127500e-02     4     5     1     4
-8.5312800000e-05     4     5     2     1
 2.1004450000e-04     4     5     2     2
 4.7500000000e-08     4     5     2     3
 8.3414765000e-03     4     5     2     4
-6.3000000000e-08     4     5     3     1
 1.7000000000e-08     4     5     3     2
 1.6816630000e-04     4     5     3     3
-8.7743500000e-05     4     5     3     4
 1.2940190000e-03     4     5     5     1
 2.5794080000e-04     4     5     5     2
-3.0174000000e-06     4     5     5     3
-3.6208653490e-01     4     5     5     4
 1.1359352400e-02     5     1     1     2
-7.6402900000e-05     5     1     1     3
-1.4643640000e-04     5     1     1     4
-3.3861131890e-01     5     1     1     5
-4.0576678000e-02     5     1     2     2
 4.2176000000e-05     5     1     2     3
 8.0833600000e-05     5     1     2     4
 8.6456998000e-02     5     1     2     5
-2.3225000000e-06     5     1     3     2
-4.1037968000e-02     5     1     3     3
 1.3680000000e-07     5     1     3     4
 6.7510970000e-04     5     1     3     5
-4.4792000000e-06     5     1     4     2
 7.3800000000e-08     5     1     4     3
-4.1038127500e-02     5     1     4     4
 1.2940190000e-03     5     1     4     5
-1.1359352400e-02     5     2     1     1
 4.4498500000e-05     5     2     1     3
 8.5312800000e-05     5     2     1     4
 8.6456998000e-02     5     2     1     5
 4.0576678000e-02     5     2     2     1
-1.0959510000e-04     5     2     2     3
-2.1004450000e-04     5     2     2     4
-3.5355639840e-01     5     2     2     5
 2.3225000000e-06     5     2     3     1
-8.3414182000e-03     5     2     3     3
-4.7500000000e-08     5     2     3     4
 1.3476900000e-04     5     2     3     5
 4.4792000000e-06     5     2     4     1
-3.0500000000e-08     5     2     4     3
-8.3414765000e-03     5     2     4     4
 2.5794080000e-04     5     2     4     5
 7.6402900000e-05     5     3     1     1
-4.4498500000e-05     5     3     1     2
 6.3000000000e-08     5     3     1     4
 6.7510970000e-04     5     3     1     5
-4.2176000000e-05     5     3     2     1
 1.0959510000e-04     5     3     2     2
-1.7000000000e-08     5     3     2     4
 1.3476900000e-04     5     3     2     5
 4.1037968000e-02     5     3     3     1
 8.3414182000e-03     5     3     3     2
-1.6816630000e-04     5     3     3     4
-3.6207947870e-01     5     3     3     5
-7.3800000000e-08     5     3     4     1
 3.0500000000e-08     5     3     4     2
 8.7743500000e-05     5     3     4     4
-3.0174000000e-06     5     3     4     5
 1.4643640000e-04     5     4     1     1
-8.5312800000e-05     5     4     1     2
-6.3000000000e-08     5     4     1     3
 1.2940190000e-03     5     4     1     5
-8.0833600000e-05     5     4     2     1
 2.1004450000e-04     5     4     2     2
 1.7000000000e-08     5     4     2     3
 2.5794080000e-04     5     4     2     5
-1.3680000000e-07     5     4     3     1
 4.7500000000e-08     5     4     3     2
 1.6816630000e-04     5     4     3     3
-3.0174000000e-06     5     4     3     5
 4.1038127500e-02     5     4     4     1
 8.3414765000e-03     5     4     4     2
-8.7743500000e-05     5     4     4     3
-3.6208653490e-01     5     4     4     5
 3.3861131890e-01     5     5     1     1
-8.6456998000e-02     5     5     1     2
-6.7510970000e-04     5     5     1     3
-1.2940190000e-03     5     5     1     4
-8.6456998000e-02     5     5     2     1
 3.5355639840e-01     5     5     2     2
-1.3476900000e-04     5     5     2     3
-2.5794080000e-04     5     5     2     4
-6.7510970000e-04     5     5     3     1
-1.3476900000e-04     5     5     3     2
 3.6207947870e-01     5     5     3     3
 3.0174000000e-06     5     5     3     4
-1.2940190000e-03     5     5     4     1
-2.5794080000e-04     5     5     4     2
 3.0174000000e-06     5     5     4     3
 3.6208653490e-01     5     5     4     4
0.0 0 0 0 0
 3.0349617760e-01     1     1     2     2
-1.8401820000e-04     1     1     2     3
-3.5237250000e-04     1     1     2     4
-1.1359352400e-02     1     1     2     5
-1.8401820000e-04     1     1     3     2
 3.3310435000e-01     1     1     3     3
 2.6140000000e-06     1     1     3     4
 7.6402900000e-05     1     1     3     5
-3.5237250000e-04     1     1     4     2
 2.6140000000e-06     1     1     4     3
 3.3311070840e-01     1     1     4     4
 1.4643640000e-04     1     1     4     5
-1.1359352400e-02     1     1     5     2
 7.6402900000e-05     1     1     5     3
 1.4643640000e-04     1     1     5     4
 3.3861131890e-01     1     1     5     5
-3.0349617760e-01     1     2     2     1
 6.6334790000e-04     1     2     2     3
 1.2712274000e-03     1     2     2     4
 4.0576678000e-02     1     2     2     5
 1.8401820000e-04     1     2     3     1
-8.3468492700e-02     1     2     3     3
-1.5136000000e-06     1     2     3     4
-4.2176000000e-05     1     2     3     5
 3.5237250000e-04     1     2     4     1
-1.6061000000e-06     1     2     4     3
-8.3471819800e-02     1     2     4     4
-8.0833600000e-05     1     2     4     5
 1.1359352400e-02     1     2     5     1
-4.4498500000e-05     1     2     5     3
-8.5312800000e-05     1     2     5     4
-8.6456998000e-02     1     2     5     5
 1.8401820000e-04     1     3     2     1
-6.6334790000e-04     1     3     2     2
 9.2500000000e-08     1     3     2     4
 2.3225000000e-06     1     3     2     5
-3.3310435000e-01     1     3     3     1
 8.3468492700e-02     1     3     3     2
 1.2810078000e-03     1     3     3     4
 4.1037968000e-02     1     3     3     5
-2.6140000000e-06     1     3     4     1
 1.6061000000e-06     1     3     4     2
-6.6831930000e-04     1     3     4     4
-1.3680000000e-07     1     3     4     5
-7.6402900000e-05     1     3     5     1
 4.4498500000e-05     1     3     5     2
-6.3000000000e-08     1     3     5     4
-6.7510970000e-04     1     3     5     5
 3.5237250000e-04     1     4     2     1
-1.2712274000e-03     1     4     2     2
-9.2500000000e-08     1     4     2     3
 4.4792000000e-06     1     4     2     5
-2.6140000000e-06     1     4     3     1
 1.5136000000e-06     1     4     3     2
-1.2810078000e-03     1     4     3     3
-7.3800000000e-08     1     4     3     5
-3.3311070840e-01     1     4     4     1
 8.3471819800e-02     1     4     4     2
 6.6831930000e-04     1     4     4     3
 4.1038127500e-02     1     4     4     5
-1.4643640000e-04     1     4     5     1
 8.5312800000e-05     1     4     5     2
 6.3000000000e-08     1     4     5     3
-1.2940190000e-03     1     4     5     5
 1.1359352400e-02     1     5     2     1
-4.0576678000e-02     1     5     2     2
-2.3225000000e-06     1     5     2     3
-4.4792000000e-06     1     5     2     4
-7.6402900000e-05     1     5     3     1
 4.2176000000e-05     1     5     3     2
-4.1037968000e-02     1     5     3     3
 7.3800000000e-08     1     5     3     4
-1.4643640000e-04     1     5     4     1
 8.0833600000e-05     1     5     4     2
 1.3680000000e-07     1     5     4     3
-4.1038127500e-02     1     5     4     4
-3.3861131890e-01     1     5     5     1
 8.6456998000e-02     1     5     5     2
 6.7510970000e-04     1     5     5     3
 1.2940190000e-03     1     5     5     4
-3.0349617760e-01     2     1     1     2
 1.8401820000e-04     2     1     1     3
 3.5237250000e-04     2     1     1     4
 1.1359352400e-02     2     1     1     5
 6.6334790000e-04     2     1     3     2
-8.3468492700e-02     2     1     3     3
-1.6061000000e-06     2     1     3     4
-4.4498500000e-05     2     1     3     5
 1.2712274000e-03     2     1     4     2
-1.5136000000e-06     2     1     4     3
-8.3471819800e-02     2     1     4     4
-8.5312800000e-05     2     1     4     5
 4.0576678000e-02     2     1     5     2
-4.2176000000e-05     2     1     5     3
-8.0833600000e-05     2     1     5     4
-8.6456998000e-02     2     1     5     5
 3.0349617760e-01     2     2     1     1
-6.6334790000e-04     2     2     1     3
-1.2712274000e-03     2     2     1     4
-4.0576678000e-02     2     2     1     5
-6.6334790000e-04     2     2     3     1
 3.4590816040e-01     2     2     3     3
 3.7086000000e-06     2     2     3     4
 1.0959510000e-04     2     2     3     5
-1.2712274000e-03     2     2     4     1
 3.7086000000e-06     2     2     4     3
 3.4591637110e-01     2     2     4     4
 2.1004450000e-04     2     2     4     5
-4.0576678000e-02     2     2     5     1
 1.0959510000e-04     2     2     5     3
 2.1004450000e-04     2     2     5     4
 3.5355639840e-01     2     2     5     5
-1.8401820000e-04     2     3     1     1
 6.6334790000e-04     2     3     1     2
-9.2500000000e-08     2     3     1     4
-2.3225000000e-06     2     3     1     5
 8.3468492700e-02     2     3     3     1
-3.4590816040e-01     2     3     3     2
 2.5775990000e-04     2     3     3     4
 8.3414182000e-03     2     3     3     5
 1.5136000000e-06     2     3     4     1
-3.7086000000e-06     2     3     4     2
-1.3465790000e-04     2     3     4     4
 4.7500000000e-08     2     3     4     5
 4.2176000000e-05     2     3     5     1
-1.0959510000e-04     2     3     5     2
 1.7000000000e-08     2     3     5     4
-1.3476900000e-04     2     3     5     5
-3.5237250000e-04     2     4     1     1
 1.2712274000e-03     2     4     1     2
 9.2500000000e-08     2     4     1     3
-4.4792000000e-06     2     4     1     5
 1.6061000000e-06     2     4     3     1
-3.7086000000e-06     2     4     3     2
-2.5775990000e-04     2     4     3     3
 3.0500000000e-08     2     4     3     5
 8.3471819800e-02     2     4     4     1
-3.4591637110e-01     2     4     4     2
 1.3465790000e-04     2     4     4     3
 8.3414765000e-03     2     4     4     5
 8.0833600000e-05     2     4     5     1
-2.1004450000e-04     2     4     5     2
-1.7000000000e-08     2     4     5     3
-2.5794080000e-04     2     4     5     5
-1.1359352400e-02     2     5     1     1
 4.0576678000e-02     2     5     1     2
 2.3225000000e-06     2     5     1     3
 4.4792000000e-06     2     5     1     4
 4.4498500000e-05     2     5     3     1
-1.0959510000e-04     2     5     3     2
-8.3414182000e-03     2     5     3     3
-3.0500000000e-08     2     5     3     4
 8.5312800000e-05     2     5     4     1
-2.1004450000e-04     2     5     4     2
-4.7500000000e-08     2     5     4     3
-8.3414765000e-03     2     5     4     4
 8.6456998000e-02     2     5     5     1
-3.5355639840e-01     2     5     5     2
 1.3476900000e-04     2     5     5     3
 2.5794080000e-04     2     5     5     4
 1.8401820000e-04     3     1     1     2
-3.3310435000e-01     3     1     1     3
-2.6140000000e-06     3     1     1     4
-7.6402900000e-05     3     1     1     5
-6.6334790000e-04     3     1     2     2
 8.3468492700e-02     3     1     2     3
 1.6061000000e-06     3     1     2     4
 4.4498500000e-05     3     1     2     5
 9.2500000000e-08     3     1     4     2
 1.2810078000e-03     3     1     4     3
-6.6831930000e-04     3     1     4     4
-6.3000000000e-08     3     1     4     5
 2.3225000000e-06     3     1     5     2
 4.1037968000e-02     3     1     5     3
-1.3680000000e-07     3     1     5     4
-6.7510970000e-04     3     1     5     5
-1.8401820000e-04     3     2     1     1
 8.3468492700e-02     3     2     1     3
 1.5136000000e-06     3     2     1     4
 4.2176000000e-05     3     2     1     5
 6.6334790000e-04     3     2     2     1
-3.4590816040e-01     3     2     2     3
-3.7086000000e-06     3     2     2     4
-1.0959510000e-04     3     2     2     5
-9.2500000000e-08     3     2     4     1
 2.5775990000e-04     3     2     4     3
-1.3465790000e-04     3     2     4     4
 1.7000000000e-08     3     2     4     5
-2.3225000000e-06     3     2     5     1
 8.3414182000e-03     3     2     5     3
 4.7500000000e-08     3     2     5     4
-1.3476900000e-04     3     2     5     5
 3.3310435000e-01     3     3     1     1
-8.3468492700e-02     3     3     1     2
-1.2810078000e-03     3     3     1     4
-4.1037968000e-02     3     3     1     5
-8.3468492700e-02     3     3     2     1
 3.4590816040e-01     3     3     2     2
-2.5775990000e-04     3     3     2     4
-8.3414182000e-03     3     3     2     5
-1.2810078000e-03     3     3     4     1
-2.5775990000e-04     3     3     4     2
 3.5587830850e-01     3     3     4     4
 1.6816630000e-04     3     3     4     5
-4.1037968000e-02     3     3     5     1
-8.3414182000e-03     3     3     5     2
 1.6816630000e-04     3     3     5     4
 3.6207947870e-01     3     3     5     5
 2.6140000000e-06     3     4     1     1
-1.5136000000e-06     3     4     1     2
 1.2810078000e-03     3     4     1     3
 7.3800000000e-08     3     4     1     5
-1.6061000000e-06     3     4     2     1
 3.7086000000e-06     3     4     2     2
 2.5775990000e-04     3     4     2     3
-3.0500000000e-08     3     4     2     5
 6.6831930000e-04     3     4     4     1
 1.3465790000e-04     3     4     4     2
-3.5587830850e-01     3     4     4     3
-8.7743500000e-05     3     4     4     5
 1.3680000000e-07     3     4     5     1
-4.7500000000e-08     3     4     5     2
-1.6816630000e-04     3     4     5     3
 3.0174000000e-06     3     4     5     5
 7.6402900000e-05     3     5     1     1
-4.2176000000e-05     3     5     1     2
 4.1037968000e-02     3     5     1     3
-7.3800000000e-08     3     5     1     4
-4.4498500000e-05     3     5     2     1
 1.0959510000e-04     3     5     2     2
 8.3414182000e-03     3     5     2     3
 3.0500000000e-08     3     5     2     4
 6.3000000000e-08     3     5     4     1
-1.7000000000e-08     3     5     4     2
-1.6816630000e-04     3     5     4     3
 8.7743500000e-05     3     5     4     4
 6.7510970000e-04     3     5     5     1
 1.3476900000e-04     3     5     5     2
-3.6207947870e-01     3     5     5     3
-3.0174000000e-06     3     5     5     4
 3.5237250000e-04     4     1     1     2
-2.6140000000e-06     4     1     1     3
-3.3311070840e-01     4     1     1     4
-1.4643640000e-04     4     1     1     5
-1.2712274000e-03     4     1     2     2
 1.5136000000e-06     4     1     2     3
 8.3471819800e-02     4     1     2     4
 8.5312800000e-05     4     1     2     5
-9.2500000000e-08     4     1     3     2
-1.2810078000e-03     4     1     3     3
 6.6831930000e-04     4     1     3     4
 6.3000000000e-08     4     1     3     5
 4.4792000000e-06     4     1     5     2
-7.3800000000e-08     4     1     5     3
 4.1038127500e-02     4     1     5     4
-1.2940190000e-03     4     1     5     5
-3.5237250000e-04     4     2     1     1
 1.6061000000e-06     4     2     1     3
 8.3471819800e-02     4     2     1     4
 8.0833600000e-05     4     2     1     5
 1.2712274000e-03     4     2     2     1
-3.7086000000e-06     4     2     2     3
-3.4591637110e-01     4     2     2     4
-2.1004450000e-04     4     2     2     5
 9.2500000000e-08     4     2     3     1
-2.5775990000e-04     4     2     3     3
 1.3465790000e-04     4     2     3     4
-1.7000000000e-08     4     2     3     5
-4.4792000000e-06     4     2     5     1
 3.0500000000e-08     4     2     5     3
 8.3414765000e-03     4     2     5     4
-2.5794080000e-04     4     2     5     5
 2.6140000000e-06     4     3     1     1
-1.6061000000e-06     4     3     1     2
 6.6831930000e-04     4     3     1     4
 1.3680000000e-07     4     3     1     5
-1.5136000000e-06     4     3     2     1
 3.7086000000e-06     4     3     2     2
 1.3465790000e-04     4     3     2     4
-4.7500000000e-08     4     3     2     5
 1.2810078000e-03     4     3     3     1
 2.5775990000e-04     4     3     3     2
-3.5587830850e-01     4     3     3     4
-1.6816630000e-04     4     3     3     5
 7.3800000000e-08     4     3     5     1
-3.0500000000e-08     4     3     5     2
-8.7743500000e-05     4     3     5     4
 3.0174000000e-06     4     3     5     5
 3.3311070840e-01     4     4     1     1
-8.3471819800e-02     4     4     1     2
-6.6831930000e-04     4     4     1     3
-4.1038127500e-02     4     4     1     5
-8.3471819800e-02     4     4     2     1
 3.4591637110e-01     4     4     2     2
-1.3465790000e-04     4     4     2     3
-8.3414765000e-03     4     4     2     5
-6.6831930000e-04     4     4     3     1
-1.3465790000e-04     4     4     3     2
 3.5587830850e-01     4     4     3     3
 8.7743500000e-05     4     4     3     5
-4.1038127500e-02     4     4     5     1
-8.3414765000e-03     4     4     5     2
 8.7743500000e-05     4     4     5     3
 3.6208653490e-01     4     4     5     5
 1.4643640000e-04     4     5     1     1
-8.0833600000e-05     4     5     1     2
-1.3680000000e-07     4     5     1     3
 4.1038127500e-02     4     5     1     4
-8.5312800000e-05     4     5     2     1
 2.1004450000e-04     4     5     2     2
 4.7500000000e-08     4     5     2     3
 8.3414765000e-03     4     5     2     4