&FCI NORB=  5,NELEC=  2,MS2=0,
 ORBSYM=1,1,1,1,1
 ISYM=1,
&END
 1.3185412330e-01     1     1     2     2
-2.8538000000e-06     1     1     2     3
-9.9122000000e-06     1     1     2     4
 6.5742393000e-03     1     1     2     5
-2.8538000000e-06     1     1     3     2
 1.6382285020e-01     1     1     3     3
 1.3500000000e-08     1     1     3     4
-9.1452000000e-06     1     1     3     5
-9.9122000000e-06     1     1     4     2
 1.3500000000e-08     1     1     4     3
 1.6382672980e-01     1     1     4     4
-3.0897100000e-05     1     1     4     5
 6.5742393000e-03     1     1     5     2
-9.1452000000e-06     1     1     5     3
-3.0897100000e-05     1     1     5     4
 1.9048904480e-01     1     1     5     5
-1.3185412330e-01     1     2     2     1
-6.9035000000e-06     1     2     2     3
-2.3027800000e-05     1     2     2     4
 1.3278730400e-02     1     2     2     5
 2.8538000000e-06     1     2     3     1
 9.9683705800e-02     1     2     3     3
 1.5620000000e-07     1     2     3     4
-7.9750000000e-07     1     2     3     5
 9.9122000000e-06     1     2     4     1
-1.5410000000e-07     1     2     4     3
 9.9685138200e-02     1     2     4     4
-2.4981000000e-06     1     2     4     5
-6.5742393000e-03     1     2     5     1
-1.1864000000e-06     1     2     5     3
-4.1466000000e-06     1     2     5     4
 1.0524332570e-01     1     2     5     5
 2.8538000000e-06     1     3     2     1
 6.9035000000e-06     1     3     2     2
 3.1030000000e-07     1     3     2     4
 3.8890000000e-07     1     3     2     5
-1.6382285020e-01     1     3     3     1
-9.9683705800e-02     1     3     3     2
-2.0606100000e-05     1     3     3     4
 1.1915395400e-02     1     3     3     5
-1.3500000000e-08     1     3     4     1
 1.5410000000e-07     1     3     4     2
 6.2637000000e-06     1     3     4     4
-2.2400000000e-08     1     3     4     5
 9.1452000000e-06     1     3     5     1
 1.1864000000e-06     1     3     5     2
-3.9600000000e-08     1     3     5     4
 7.7364000000e-06     1     3     5     5
 9.9122000000e-06     1     4     2     1
 2.3027800000e-05     1     4     2     2
-3.1030000000e-07     1     4     2     3
 1.6485000000e-06     1     4     2     5
-1.3500000000e-08     1     4     3     1
-1.5620000000e-07     1     4     3     2
 2.0606100000e-05     1     4     3     3
 1.7200000000e-08     1     4     3     5
-1.6382672980e-01     1     4     4     1
-9.9685138200e-02     1     4     4     2
-6.2637000000e-06     1     4     4     3
 1.1915184800e-02     1     4     4     5
 3.0897100000e-05     1     4     5     1
 4.1466000000e-06     1     4     5     2
 3.9600000000e-08     1     4     5     3
 2.5456700000e-05     1     4     5     5
-6.5742393000e-03     1     5     2     1
-1.3278730400e-02     1     5     2     2
-3.8890000000e-07     1     5     2     3
-1.6485000000e-06     1     5     2     4
 9.1452000000e-06     1     5     3     1
 7.9750000000e-07     1     5     3     2
-1.1915395400e-02     1     5     3     3
-1.7200000000e-08     1     5     3     4
 3.0897100000e-05     1     5     4     1
 2.4981000000e-06     1     5     4     2
 2.2400000000e-08     1     5     4     3
-1.1915184800e-02     1     5     4     4
-1.9048904480e-01     1     5     5     1
-1.0524332570e-01     1     5     5     2
-7.7364000000e-06     1     5     5     3
-2.5456700000e-05     1     5     5     4
-1.3185412330e-01     2     1     1     2
 2.8538000000e-06     2     1     1     3
 9.9122000000e-06     2     1     1     4
-6.5742393000e-03     2     1     1     5
-6.9035000000e-06     2     1     3     2
 9.9683705800e-02     2     1     3     3
-1.5410000000e-07     2     1     3     4
-1.1864000000e-06     2     1     3     5
-2.3027800000e-05     2     1     4     2
 1.5620000000e-07     2     1     4     3
 9.9685138200e-02     2     1     4     4
-4.1466000000e-06     2     1     4     5
 1.3278730400e-02     2     1     5     2
-7.9750000000e-07     2     1     5     3
-2.4981000000e-06     2     1     5     4
 1.0524332570e-01     2     1     5     5
 1.3185412330e-01     2     2     1     1
 6.9035000000e-06     2     2     1     3
 2.3027800000e-05     2     2     1     4
-1.3278730400e-02     2     2     1     5
 6.9035000000e-06     2     2     3     1
 1.7150265250e-01     2     2     3     3
 1.0100000000e-08     2     2     3     4
-7.1677000000e-06     2     2     3     5
 2.3027800000e-05     2     2     4     1
 1.0100000000e-08     2     2     4     3
 1.7150699630e-01     2     2     4     4
-2.4106100000e-05     2     2     4     5
-1.3278730400e-02     2     2     5     1
-7.1677000000e-06     2     2     5     3
-2.4106100000e-05     2     2     5     4
 1.9503431730e-01     2     2     5     5
-2.8538000000e-06     2     3     1     1
-6.9035000000e-06     2     3     1     2
-3.1030000000e-07     2     3     1     4
-3.8890000000e-07     2     3     1     5
-9.9683705800e-02     2     3     3     1
-1.7150265250e-01     2     3     3     2
 5.1378000000e-06     2     3     3     4
-3.7232356000e-03     2     3     3     5
-1.5620000000e-07     2     3     4     1
-1.0100000000e-08     2     3     4     2
-1.4267000000e-06     2     3     4     4
 2.1400000000e-08     2     3     4     5
 7.9750000000e-07     2     3     5     1
 7.1677000000e-06     2     3     5     2
 4.5900000000e-08     2     3     5     4
-1.0902000000e-06     2     3     5     5
-9.9122000000e-06     2     4     1     1
-2.3027800000e-05     2     4     1     2
 3.1030000000e-07     2     4     1     3
-1.6485000000e-06     2     4     1     5
 1.5410000000e-07     2     4     3     1
-1.0100000000e-08     2     4     3     2
-5.1378000000e-06     2     4     3     3
-2.4500000000e-08     2     4     3     5
-9.9685138200e-02     2     4     4     1
-1.7150699630e-01     2     4     4     2
 1.4267000000e-06     2     4     4     3
-3.7234982000e-03     2     4     4     5
 2.4981000000e-06     2     4     5     1
 2.4106100000e-05     2     4     5     2
-4.5900000000e-08     2     4     5     3
-4.1285000000e-06     2     4     5     5
 6.5742393000e-03     2     5     1     1
 1.3278730400e-02     2     5     1     2
 3.8890000000e-07     2     5     1     3
 1.6485000000e-06     2     5     1     4
 1.1864000000e-06     2     5     3     1
 7.1677000000e-06     2     5     3     2
 3.7232356000e-03     2     5     3     3
 2.4500000000e-08     2     5     3     4
 4.1466000000e-06     2     5     4     1
 2.4106100000e-05     2     5     4     2
-2.1400000000e-08     2     5     4     3
 3.7234982000e-03     2     5     4     4
-1.0524332570e-01     2     5     5     1
-1.9503431730e-01     2     5     5     2
 1.0902000000e-06     2     5     5     3
 4.1285000000e-06     2     5     5     4
 2.8538000000e-06     3     1     1     2
-1.6382285020e-01     3     1     1     3
-1.3500000000e-08     3     1     1     4
 9.1452000000e-06     3     1     1     5
 6.9035000000e-06     3     1     2     2
-9.9683705800e-02     3     1     2     3
 1.5410000000e-07     3     1     2     4
 1.1864000000e-06     3     1     2     5
 3.1030000000e-07     3     1     4     2
-2.0606100000e-05     3     1     4     3
 6.2637000000e-06     3     1     4     4
-3.9600000000e-08     3     1     4     5
 3.8890000000e-07     3     1     5     2
 1.1915395400e-02     3     1     5     3
-2.2400000000e-08     3     1     5     4
 7.7364000000e-06     3     1     5     5
-2.8538000000e-06     3     2     1     1
-9.9683705800e-02     3     2     1     3
-1.5620000000e-07     3     2     1     4
 7.9750000000e-07     3     2     1     5
-6.9035000000e-06     3     2     2     1
-1.7150265250e-01     3     2     2     3
-1.0100000000e-08     3     2     2     4
 7.1677000000e-06     3     2     2     5
-3.1030000000e-07     3     2     4     1
 5.1378000000e-06     3     2     4     3
-1.4267000000e-06     3     2     4     4
 4.5900000000e-08     3     2     4     5
-3.8890000000e-07     3     2     5     1
-3.7232356000e-03     3     2     5     3
 2.1400000000e-08     3     2     5     4
-1.0902000000e-06     3     2     5     5
 1.6382285020e-01     3     3     1     1
 9.9683705800e-02     3     3     1     2
 2.0606100000e-05     3     3     1     4
-1.1915395400e-02     3     3     1     5
 9.9683705800e-02     3     3     2     1
 1.7150265250e-01     3     3     2     2
-5.1378000000e-06     3     3     2     4
 3.7232356000e-03     3     3     2     5
 2.0606100000e-05     3     3     4     1
-5.1378000000e-06     3     3     4     2
 1.8769160390e-01     3     3     4     4
-2.0982000000e-05     3     3     4     5
-1.1915395400e-02     3     3     5     1
 3.7232356000e-03     3     3     5     2
-2.0982000000e-05     3     3     5     4
 2.0851199680e-01     3     3     5     5
 1.3500000000e-08     3     4     1     1
 1.5620000000e-07     3     4     1     2
-2.0606100000e-05     3     4     1     3
-1.7200000000e-08     3     4     1     5
-1.5410000000e-07     3     4     2     1
 1.0100000000e-08     3     4     2     2
 5.1378000000e-06     3     4     2     3
 2.4500000000e-08     3     4     2     5
-6.2637000000e-06     3     4     4     1
 1.4267000000e-06     3     4     4     2
-1.8769160390e-01     3     4     4     3
 6.2022000000e-06     3     4     4     5
 2.2400000000e-08     3     4     5     1
-2.1400000000e-08     3     4     5     2
 2.0982000000e-05     3     4     5     3
 9.2000000000e-09     3     4     5     5
-9.1452000000e-06     3     5     1     1
-7.9750000000e-07     3     5     1     2
 1.1915395400e-02     3     5     1     3
 1.7200000000e-08     3     5     1     4
-1.1864000000e-06     3     5     2     1
-7.1677000000e-06     3     5     2     2
-3.7232356000e-03     3     5     2     3
-2.4500000000e-08     3     5     2     4
 3.9600000000e-08     3     5     4     1
-4.5900000000e-08     3     5     4     2
 2.0982000000e-05     3     5     4     3
-6.2022000000e-06     3     5     4     4
-7.7364000000e-06     3     5     5     1
 1.0902000000e-06     3     5     5     2
-2.0851199680e-01     3     5     5     3
-9.2000000000e-09     3     5     5     4
 9.9122000000e-06     4     1     1     2
-1.3500000000e-08     4     1     1     3
-1.6382672980e-01     4     1     1     4
 3.0897100000e-05     4     1     1     5
 2.3027800000e-05     4     1     2     2
-1.5620000000e-07     4     1     2     3
-9.9685138200e-02     4     1     2     4
 4.1466000000e-06     4     1     2     5
-3.1030000000e-07     4     1     3     2
 2.0606100000e-05     4     1     3     3
-6.2637000000e-06     4     1     3     4
 3.9600000000e-08     4     1     3     5
 1.6485000000e-06     4     1     5     2
 1.7200000000e-08     4     1     5     3
 1.1915184800e-02     4     1     5     4
 2.5456700000e-05     4     1     5     5
-9.9122000000e-06     4     2     1     1
 1.5410000000e-07     4     2     1     3
-9.9685138200e-02     4     2     1     4
 2.4981000000e-06     4     2     1     5
-2.3027800000e-05     4     2     2     1
-1.0100000000e-08     4     2     2     3
-1.7150699630e-01     4     2     2     4
 2.4106100000e-05     4     2     2     5
 3.1030000000e-07     4     2     3     1
-5.1378000000e-06     4     2     3     3
 1.4267000000e-06     4     2     3     4
-4.5900000000e-08     4     2     3     5
-1.6485000000e-06     4     2     5     1
-2.4500000000e-08     4     2     5     3
-3.7234982000e-03     4     2     5     4
-4.1285000000e-06     4     2     5     5
 1.3500000000e-08     4     3     1     1
-1.5410000000e-07     4     3     1     2
-6.2637000000e-06     4     3     1     4
 2.2400000000e-08     4     3     1     5
 1.5620000000e-07     4     3     2     1
 1.0100000000e-08     4     3     2     2
 1.4267000000e-06     4     3     2     4
-2.1400000000e-08     4     3     2     5
-2.0606100000e-05     4     3     3     1
 5.1378000000e-06     4     3     3     2
-1.8769160390e-01     4     3     3     4
 2.0982000000e-05     4     3     3     5
-1.7200000000e-08     4     3     5     1
 2.4500000000e-08     4     3     5     2
 6.2022000000e-06     4     3     5     4
 9.2000000000e-09     4     3     5     5
 1.6382672980e-01     4     4     1     1
 9.9685138200e-02     4     4     1     2
 6.2637000000e-06     4     4     1     3
-1.1915184800e-02     4     4     1     5
 9.9685138200e-02     4     4     2     1
 1.7150699630e-01     4     4     2     2
-1.4267000000e-06     4     4     2     3
 3.7234982000e-03     4     4     2     5
 6.2637000000e-06     4     4     3     1
-1.4267000000e-06     4     4     3     2
 1.8769160390e-01     4     4     3     3
-6.2022000000e-06     4     4     3     5
-1.1915184800e-02     4     4     5     1
 3.7234982000e-03     4     4     5     2
-6.2022000000e-06     4     4     5     3
 2.0851630020e-01     4     4     5     5
-3.0897100000e-05     4     5     1     1
-2.4981000000e-06     4     5     1     2
-2.2400000000e-08     4     5     1     3
 1.1915184800e-02     4     5     1     4
-4.1466000000e-06     4     5     2     1
-2.4106100000e-05     4     5     2     2
 2.1400000000e-08     4     5     2     3
-3.7234982000e-03     4     5     2     4
-3.9600000000e-08     4     5     3     1
 4.5900000000e-08     4     5     3     2
-2.0982000000e-05     4     5     3     3
 6.2022000000e-06     4     5     3     4
-2.5456700000e-05     4     5     5     1
 4.1285000000e-06     4     5     5     2
-9.2000000000e-09     4     5     5     3
-2.0851630020e-01     4     5     5     4
-6.5742393000e-03     5     1     1     2
 9.1452000000e-06     5     1     1     3
 3.0897100000e-05     5     1     1     4
-1.9048904480e-01     5     1     1     5
-1.3278730400e-02     5     1     2     2
 7.9750000000e-07     5     1     2     3
 2.4981000000e-06     5     1     2     4
-1.0524332570e-01     5     1     2     5
-3.8890000000e-07     5     1     3     2
-1.1915395400e-02     5     1     3     3
 2.2400000000e-08     5     1     3     4
-7.7364000000e-06     5     1     3     5
-1.6485000000e-06     5     1     4     2
-1.7200000000e-08     5     1     4     3
-1.1915184800e-02     5     1     4     4
-2.5456700000e-05     5     1     4     5
 6.5742393000e-03     5     2     1     1
 1.1864000000e-06     5     2     1     3
 4.1466000000e-06     5     2     1     4
-1.0524332570e-01     5     2     1     5
 1.3278730400e-02     5     2     2     1
 7.1677000000e-06     5     2     2     3
 2.4106100000e-05     5     2     2     4
-1.9503431730e-01     5     2     2     5
 3.8890000000e-07     5     2     3     1
 3.7232356000e-03     5     2     3     3
-2.1400000000e-08     5     2     3     4
 1.0902000000e-06     5     2     3     5
 1.6485000000e-06     5     2     4     1
 2.4500000000e-08     5     2     4     3
 3.7234982000e-03     5     2     4     4
 4.1285000000e-06     5     2     4     5
-9.1452000000e-06     5     3     1     1
-1.1864000000e-06     5     3     1     2
 3.9600000000e-08     5     3     1     4
-7.7364000000e-06     5     3     1     5
-7.9750000000e-07     5     3     2     1
-7.1677000000e-06     5     3     2     2
-4.5900000000e-08     5     3     2     4
 1.0902000000e-06     5     3     2     5
 1.1915395400e-02     5     3     3     1
-3.7232356000e-03     5     3     3     2
 2.0982000000e-05     5     3     3     4
-2.0851199680e-01     5     3     3     5
 1.7200000000e-08     5     3     4     1
-2.4500000000e-08     5     3     4     2
-6.2022000000e-06     5     3     4     4
-9.2000000000e-09     5     3     4     5
-3.0897100000e-05     5     4     1     1
-4.1466000000e-06     5     4     1     2
-3.9600000000e-08     5     4     1     3
-2.5456700000e-05     5     4     1     5
-2.4981000000e-06     5     4     2     1
-2.4106100000e-05     5     4     2     2
 4.5900000000e-08     5     4     2     3
 4.1285000000e-06     5     4     2     5
-2.2400000000e-08     5     4     3     1
 2.1400000000e-08     5     4     3     2
-2.0982000000e-05     5     4     3     3
-9.2000000000e-09     5     4     3     5
 1.1915184800e-02     5     4     4     1
-3.7234982000e-03     5     4     4     2
 6.2022000000e-06     5     4     4     3
-2.0851630020e-01     5     4     4     5
 1.9048904480e-01     5     5     1     1
 1.0524332570e-01     5     5     1     2
 7.7364000000e-06     5     5     1     3
 2.5456700000e-05     5     5     1     4
 1.0524332570e-01     5     5     2     1
 1.9503431730e-01     5     5     2     2
-1.0902000000e-06     5     5     2     3
-4.1285000000e-06     5     5     2     4
 7.7364000000e-06     5     5     3     1
-1.0902000000e-06     5     5     3     2
 2.0851199680e-01     5     5     3     3
 9.2000000000e-09     5     5     3     4
 2.5456700000e-05     5     5     4     1
-4.1285000000e-06     5     5     4     2
 9.2000000000e-09     5     5     4     3
 2.0851630020e-01     5     5     4     4
0.0 0 0 0 0
 1.3185412330e-01     1     1     2     2
-2.8538000000e-06     1     1     2     3
-9.9122000000e-06     1     1     2     4
 6.5742393000e-03     1     1     2     5
-2.8538000000e-06     1     1     3     2
 1.6382285020e-01     1     1     3     3
 1.3500000000e-08     1     1     3     4
-9.1452000000e-06     1     1     3     5
-9.9122000000e-06     1     1     4     2
 1.3500000000e-08     1     1     4     3
 1.6382672980e-01     1     1     4     4
-3.0897100000e-05     1     1     4     5
 6.5742393000e-03     1     1     5     2
-9.1452000000e-06     1     1     5     3
-3.0897100000e-05     1     1     5     4
 1.9048904480e-01     1     1     5     5
-1.3185412330e-01     1     2     2     1
-6.9035000000e-06     1     2     2     3
-2.3027800000e-05     1     2     2     4
 1.3278730400e-02     1     2     2     5
 2.8538000000e-06     1     2     3     1
 9.9683705800e-02     1     2     3     3
 1.5620000000e-07     1     2     3     4
-7.9750000000e-07     1     2     3     5
 9.9122000000e-06     1     2     4     1
-1.5410000000e-07     1     2     4     3
 9.9685138200e-02     1     2     4     4
-2.4981000000e-06     1     2     4     5
-6.5742393000e-03     1     2     5     1
-1.1864000000e-06     1     2     5     3
-4.1466000000e-06     1     2     5     4
 1.0524332570e-01     1     2     5     5
 2.8538000000e-06     1     3     2     1
 6.9035000000e-06     1     3     2     2
 3.1030000000e-07     1     3     2     4
 3.8890000000e-07     1     3     2     5
-1.6382285020e-01     1     3     3     1
-9.9683705800e-02     1     3     3     2
-2.0606100000e-05     1     3     3     4
 1.1915395400e-02     1     3     3     5
-1.3500000000e-08     1     3     4     1
 1.5410000000e-07     1     3     4     2
 6.2637000000e-06     1     3     4     4
-2.2400000000e-08     1     3     4     5
 9.1452000000e-06     1     3     5     1
 1.1864000000e-06     1     3     5     2
-3.9600000000e-08     1     3     5     4
 7.7364000000e-06     1     3     5     5
 9.9122000000e-06     1     4     2     1
 2.3027800000e-05     1     4     2     2
-3.1030000000e-07     1     4     2     3
 1.6485000000e-06     1     4     2     5
-1.3500000000e-08     1     4     3     1
-1.5620000000e-07     1     4     3     2
 2.0606100000e-05     1     4     3     3
 1.7200000000e-08     1     4     3     5
-1.6382672980e-01     1     4     4     1
-9.9685138200e-02     1     4     4     2
-6.2637000000e-06     1     4     4     3
 1.1915184800e-02     1     4     4     5
 3.0897100000e-05     1     4     5     1
 4.1466000000e-06     1     4     5     2
 3.9600000000e-08     1     4     5     3
 2.5456700000e-05     1     4     5     5
-6.5742393000e-03     1     5     2     1
-1.3278730400e-02     1     5     2     2
-3.8890000000e-07     1     5     2     3
-1.6485000000e-06     1     5     2     4
 9.1452000000e-06     1     5     3     1
 7.9750000000e-07     1     5     3     2
-1.1915395400e-02     1     5     3     3
-1.7200000000e-08     1     5     3     4
 3.0897100000e-05     1     5     4     1
 2.4981000000e-06     1     5     4     2
 2.2400000000e-08     1     5     4     3
-1.1915184800e-02     1     5     4     4
-1.9048904480e-01     1     5     5     1
-1.0524332570e-01     1     5     5     2
-7.7364000000e-06     1     5     5     3
-2.5456700000e-05     1     5     5     4
-1.3185412330e-01     2     1     1     2
 2.8538000000e-06     2     1     1     3
 9.9122000000e-06     2     1     1     4
-6.5742393000e-03     2     1     1     5
-6.9035000000e-06     2     1     3     2
 9.9683705800e-02     2     1     3     3
-1.5410000000e-07     2     1     3     4
-1.1864000000e-06     2     1     3     5
-2.3027800000e-05     2     1     4     2
 1.5620000000e-07     2     1     4     3
 9.9685138200e-02     2     1     4     4
-4.1466000000e-06     2     1     4     5
 1.3278730400e-02     2     1     5     2
-7.9750000000e-07     2     1     5     3
-2.4981000000e-06     2     1     5     4
 1.0524332570e-01     2     1     5     5
 1.3185412330e-01     2     2     1     1
 6.9035000000e-06     2     2     1     3
 2.3027800000e-05     2     2     1     4
-1.3278730400e-02     2     2     1     5
 6.9035000000e-06     2     2     3     1
 1.7150265250e-01     2     2     3     3
 1.0100000000e-08     2     2     3     4
-7.1677000000e-06     2     2     3     5
 2.3027800000e-05     2     2     4     1
 1.0100000000e-08     2     2     4     3
 1.7150699630e-01     2     2     4     4
-2.4106100000e-05     2     2     4     5
-1.3278730400e-02     2     2     5     1
-7.1677000000e-06     2     2     5     3
-2.4106100000e-05     2     2     5     4
 1.9503431730e-01     2     2     5     5
-2.8538000000e-06     2     3     1     1
-6.9035000000e-06     2     3     1     2
-3.1030000000e-07     2     3     1     4
-3.8890000000e-07     2     3     1     5
-9.9683705800e-02     2     3     3     1
-1.7150265250e-01     2     3     3     2
 5.1378000000e-06     2     3     3     4
-3.7232356000e-03     2     3     3     5
-1.5620000000e-07     2     3     4     1
-1.0100000000e-08     2     3     4     2
-1.4267000000e-06     2     3     4     4
 2.1400000000e-08     2     3     4     5
 7.9750000000e-07     2     3     5     1
 7.1677000000e-06     2     3     5     2
 4.5900000000e-08     2     3     5     4
-1.0902000000e-06     2     3     5     5
-9.9122000000e-06     2     4     1     1
-2.3027800000e-05     2     4     1     2
 3.1030000000e-07     2     4     1     3
-1.6485000000e-06     2     4     1     5
 1.5410000000e-07     2     4     3     1
-1.0100000000e-08     2     4     3     2
-5.1378000000e-06     2     4     3     3
-2.4500000000e-08     2     4     3     5
-9.9685138200e-02     2     4     4     1
-1.7150699630e-01     2     4     4     2
 1.4267000000e-06     2     4     4     3
-3.7234982000e-03     2     4     4     5
 2.4981000000e-06     2     4     5     1
 2.4106100000e-05     2     4     5     2
-4.5900000000e-08     2     4     5     3
-4.1285000000e-06     2     4     5     5
 6.5742393000e-03     2     5     1     1
 1.3278730400e-02     2     5     1     2
 3.8890000000e-07     2     5     1     3
 1.6485000000e-06     2     5     1     4
 1.1864000000e-06     2     5     3     1
 7.1677000000e-06     2     5     3     2
 3.7232356000e-03     2     5     3     3
 2.4500000000e-08     2     5     3     4
 4.1466000000e-06     2     5     4     1
 2.4106100000e-05     2     5     4     2
-2.1400000000e-08     2     5     4     3
 3.7234982000e-03     2     5     4     4
-1.0524332570e-01     2     5     5     1
-1.9503431730e-01     2     5     5     2
 1.0902000000e-06     2     5     5     3
 4.1285000000e-06     2     5     5     4
 2.8538000000e-06     3     1     1     2
-1.6382285020e-01     3     1     1     3
-1.3500000000e-08     3     1     1     4
 9.1452000000e-06     3     1     1     5
 6.9035000000e-06     3     1     2     2
-9.9683705800e-02     3     1     2     3
 1.5410000000e-07     3     1     2     4
 1.1864000000e-06     3     1     2     5
 3.1030000000e-07     3     1     4     2
-2.0606100000e-05     3     1     4     3
 6.2637000000e-06     3     1     4     4
-3.9600000000e-08     3     1     4     5
 3.8890000000e-07     3     1     5     2
 1.1915395400e-02     3     1     5     3
-2.2400000000e-08     3     1     5     4
 7.7364000000e-06     3     1     5     5
-2.8538000000e-06     3     2     1     1
-9.9683705800e-02     3     2     1     3
-1.5620000000e-07     3     2     1     4
 7.9750000000e-07     3     2     1     5
-6.9035000000e-06     3     2     2     1
-1.7150265250e-01     3     2     2     3
-1.0100000000e-08     3     2     2     4
 7.1677000000e-06     3     2     2     5
-3.1030000000e-07     3     2     4     1
 5.1378000000e-06     3     2     4     3
-1.4267000000e-06     3     2     4     4
 4.5900000000e-08     3     2     4     5
-3.8890000000e-07     3     2     5     1
-3.7232356000e-03     3     2     5     3
 2.1400000000e-08     3     2     5     4
-1.0902000000e-06     3     2     5     5
 1.6382285020e-01     3     3     1     1
 9.9683705800e-02     3     3     1     2
 2.0606100000e-05     3     3     1     4
-1.1915395400e-02     3     3     1     5
 9.9683705800e-02     3     3     2     1
 1.7150265250e-01     3     3     2     2
-5.1378000000e-06     3     3     2     4
 3.7232356000e-03     3     3     2     5
 2.0606100000e-05     3     3     4     1
-5.1378000000e-06     3     3     4     2
 1.8769160390e-01     3     3     4     4
-2.0982000000e-05     3     3     4     5
-1.1915395400e-02     3     3     5     1
 3.7232356000e-03     3     3     5     2
-2.0982000000e-05     3     3     5     4
 2.0851199680e-01     3     3     5     5
 1.3500000000e-08     3     4     1     1
 1.5620000000e-07     3     4     1     2
-2.0606100000e-05     3     4     1     3
-1.7200000000e-08     3     4     1     5
-1.5410000000e-07     3     4     2     1
 1.0100000000e-08     3     4     2     2
 5.1378000000e-06     3     4     2     3
 2.4500000000e-08     3     4     2     5
-6.2637000000e-06     3     4     4     1
 1.4267000000e-06     3     4     4     2
-1.8769160390e-01     3     4     4     3
 6.2022000000e-06     3     4     4     5
 2.2400000000e-08     3     4     5     1
-2.1400000000e-08     3     4     5     2
 2.0982000000e-05     3     4     5     3
 9.2000000000e-09     3     4     5     5
-9.1452000000e-06     3     5     1     1
-7.9750000000e-07     3     5     1     2
 1.1915395400e-02     3     5     1     3
 1.7200000000e-08     3     5     1     4
-1.1864000000e-06     3     5     2     1
-7.1677000000e-06     3     5     2     2
-3.7232356000e-03     3     5     2     3
-2.4500000000e-08     3     5     2     4
 3.9600000000e-08     3     5     4     1
-4.5900000000e-08     3     5     4     2
 2.0982000000e-05     3     5     4     3
-6.2022000000e-06     3     5     4     4
-7.7364000000e-06     3     5     5     1
 1.0902000000e-06     3     5     5     2
-2.0851199680e-01     3     5     5     3
-9.2000000000e-09     3     5     5     4
 9.9122000000e-06     4     1     1     2
-1.3500000000e-08     4     1     1     3
-1.6382672980e-01     4     1     1     4
 3.0897100000e-05     4     1     1     5
 2.3027800000e-05     4     1     2     2
-1.5620000000e-07     4     1     2     3
-9.9685138200e-02     4     1     2     4
 4.1466000000e-06     4     1     2     5
-3.1030000000e-07     4     1     3     2
 2.0606100000e-05     4     1     3     3
-6.2637000000e-06     4     1     3     4
 3.9600000000e-08     4     1     3     5
 1.6485000000e-06     4     1     5     2
 1.7200000000e-08     4     1     5     3
 1.1915184800e-02     4     1     5     4
 2.5456700000e-05     4     1     5     5
-9.9122000000e-06     4     2     1     1
 1.5410000000e-07     4     2     1     3
-9.9685138200e-02     4     2     1     4
 2.4981000000e-06     4     2     1     5
-2.3027800000e-05     4     2     2     1
-1.0100000000e-08     4     2     2     3
-1.7150699630e-01     4     2     2     4
 2.4106100000e-05     4     2     2     5
 3.1030000000e-07     4     2     3     1
-5.1378000000e-06     4     2     3     3
 1.4267000000e-06     4     2     3     4
-4.5900000000e-08     4     2     3     5
-1.6485000000e-06     4     2     5     1
-2.4500000000e-08     4     2     5     3
-3.7234982000e-03     4     2     5     4
-4.1285000000e-06     4     2     5     5
 1.3500000000e-08     4     3     1     1
-1.5410000000e-07     4     3     1     2
-6.2637000000e-06     4     3     1     4
 2.2400000000e-08     4     3     1     5
 1.5620000000e-07     4     3     2     1
 1.0100000000e-08     4     3     2     2
 1.4267000000e-06     4     3     2     4
-2.1400000000e-08     4     3     2     5
-2.0606100000e-05     4     3     3     1
 5.1378000000e-06     4     3     3     2
-1.8769160390e-01     4     3     3     4
 2.0982000000e-05     4     3     3     5
-1.7200000000e-08     4     3     5     1
 2.4500000000e-08     4     3     5     2
 6.2022000000e-06     4     3     5     4
 9.2000000000e-09     4     3     5     5
 1.6382672980e-01     4     4     1     1
 9.9685138200e-02     4     4     1     2
 6.2637000000e-06     4     4     1     3
-1.1915184800e-02     4     4     1     5
 9.9685138200e-02     4     4     2     1
 1.7150699630e-01     4     4     2     2
-1.4267000000e-06     4     4     2     3
 3.7234982000e-03     4     4     2     5
 6.2637000000e-06     4     4     3     1
-1.4267000000e-06     4     4     3     2
 1.8769160390e-01     4     4     3     3
-6.2022000000e-06     4     4     3     5
-1.1915184800e-02     4     4     5     1
 3.7234982000e-03     4     4     5     2
-6.2022000000e-06     4     4     5     3
 2.0851630020e-01     4     4     5     5
-3.0897100000e-05     4     5     1     1
-2.4981000000e-06     4     5     1     2
-2.2400000000e-08     4     5     1     3
 1.1915184800e-02     4     5     1     4
-4.1466000000e-06     4     5     2     1
-2.4106100000e-05     4     5     2     2
 2.1400000000e-08     4     5     2     3
-3.7234982000e-03     4     5     2     4