&FCI NORB=  5,NELEC=  2,MS2=0,
 ORBSYM=1,1,1,1,1
 ISYM=1,
&END
 6.7809556300e-02     1     1     2     2
-4.4770855000e-03     1     1     2     3
-5.5039400000e-05     1     1     2     4
 9.6100000000e-07     1     1     2     5
-4.4770855000e-03     1     1     3     2
 1.1187110050e-01     1     1     3     3
-2.7291000000e-06     1     1     3     4
 7.8200000000e-08     1     1     3     5
-5.5039400000e-05     1     1     4     2
-2.7291000000e-06     1     1     4     3
 1.1325714640e-01     1     1     4     4
 5.5400000000e-08     1     1     4     5
 9.6100000000e-07     1     1     5     2
 7.8200000000e-08     1     1     5     3
 5.5400000000e-08     1     1     5     4
 1.1325790040e-01     1     1     5     5
-6.7809556300e-02     1     2     2     1
 3.8747936000e-02     1     2     2     3
 5.1583110000e-04     1     2     2     4
-9.9582000000e-06     1     2     2     5
 4.4770855000e-03     1     2     3     1
-7.7942252400e-02     1     2     3     3
-3.9451900000e-05     1     2     3     4
 7.7200000000e-07     1     2     3     5
 5.5039400000e-05     1     2     4     1
-3.9478000000e-05     1     2     4     3
-7.5951212100e-02     1     2     4     4
 2.3100000000e-08     1     2     4     5
-9.6100000000e-07     1     2     5     1
 7.6580000000e-07     1     2     5     3
-7.0900000000e-08     1     2     5     4
-7.5951118500e-02     1     2     5     5
 4.4770855000e-03     1     3     2     1
-3.8747936000e-02     1     3     2     2
 2.6100000000e-08     1     3     2     4
 6.2000000000e-09     1     3     2     5
-1.1187110050e-01     1     3     3     1
 7.7942252400e-02     1     3     3     2
 5.7776760000e-04     1     3     3     4
-1.1274200000e-05     1     3     3     5
 2.7291000000e-06     1     3     4     1
 3.9478000000e-05     1     3     4     2
-4.3537768300e-02     1     3     4     4
 2.3300000000e-08     1     3     4     5
-7.8200000000e-08     1     3     5     1
-7.6580000000e-07     1     3     5     2
-1.2700000000e-08     1     3     5     4
-4.3537833600e-02     1     3     5     5
 5.5039400000e-05     1     4     2     1
-5.1583110000e-04     1     4     2     2
-2.6100000000e-08     1     4     2     3
 9.4000000000e-08     1     4     2     5
 2.7291000000e-06     1     4     3     1
 3.9451900000e-05     1     4     3     2
-5.7776760000e-04     1     4     3     3
 3.6000000000e-08     1     4     3     5
-1.1325714640e-01     1     4     4     1
 7.5951212100e-02     1     4     4     2
 4.3537768300e-02     1     4     4     3
-1.1303900000e-05     1     4     4     5
-5.5400000000e-08     1     4     5     1
 7.0900000000e-08     1     4     5     2
 1.2700000000e-08     1     4     5     3
-5.7947290000e-04     1     4     5     5
-9.6100000000e-07     1     5     2     1
 9.9582000000e-06     1     5     2     2
-6.2000000000e-09     1     5     2     3
-9.4000000000e-08     1     5     2     4
-7.8200000000e-08     1     5     3     1
-7.7200000000e-07     1     5     3     2
 1.1274200000e-05     1     5     3     3
-3.6000000000e-08     1     5     3     4
-5.5400000000e-08     1     5     4     1
-2.3100000000e-08     1     5     4     2
-2.3300000000e-08     1     5     4     3
 1.1303900000e-05     1     5     4     4
-1.1325790040e-01     1     5     5     1
 7.5951118500e-02     1     5     5     2
 4.3537833600e-02     1     5     5     3
 5.7947290000e-04     1     5     5     4
-6.7809556300e-02     2     1     1     2
 4.4770855000e-03     2     1     1     3
 5.5039400000e-05     2     1     1     4
-9.6100000000e-07     2     1     1     5
 3.8747936000e-02     2     1     3     2
-7.7942252400e-02     2     1     3     3
-3.9478000000e-05     2     1     3     4
 7.6580000000e-07     2     1     3     5
 5.1583110000e-04     2     1     4     2
-3.9451900000e-05     2     1     4     3
-7.5951212100e-02     2     1     4     4
-7.0900000000e-08     2     1     4     5
-9.9582000000e-06     2     1     5     2
 7.7200000000e-07     2     1     5     3
 2.3100000000e-08     2     1     5     4
-7.5951118500e-02     2     1     5     5
 6.7809556300e-02     2     2     1     1
-3.8747936000e-02     2     2     1     3
-5.1583110000e-04     2     2     1     4
 9.9582000000e-06     2     2     1     5
-3.8747936000e-02     2     2     3     1
 1.1879178380e-01     2     2     3     3
 2.1282900000e-05     2     2     3     4
-3.7560000000e-07     2     2     3     5
-5.1583110000e-04     2     2     4     1
 2.1282900000e-05     2     2     4     3
 1.1831579470e-01     2     2     4     4
 4.5900000000e-08     2     2     4     5
 9.9582000000e-06     2     2     5     1
-3.7560000000e-07     2     2     5     3
 4.5900000000e-08     2     2     5     4
 1.1831620430e-01     2     2     5     5
-4.4770855000e-03     2     3     1     1
 3.8747936000e-02     2     3     1     2
-2.6100000000e-08     2     3     1     4
-6.2000000000e-09     2     3     1     5
 7.7942252400e-02     2     3     3     1
-1.1879178380e-01     2     3     3     2
 9.9241000000e-06     2     3     3     4
-7.0200000000e-08     2     3     3     5
 3.9451900000e-05     2     3     4     1
-2.1282900000e-05     2     3     4     2
-1.0942244000e-03     2     3     4     4
 7.7000000000e-09     2     3     4     5
-7.7200000000e-07     2     3     5     1
 3.7560000000e-07     2     3     5     2
-4.0000000000e-10     2     3     5     4
-1.0941825000e-03     2     3     5     5
-5.5039400000e-05     2     4     1     1
 5.1583110000e-04     2     4     1     2
 2.6100000000e-08     2     4     1     3
-9.4000000000e-08     2     4     1     5
 3.9478000000e-05     2     4     3     1
-2.1282900000e-05     2     4     3     2
-9.9241000000e-06     2     4     3     3
 8.1000000000e-09     2     4     3     5
 7.5951212100e-02     2     4     4     1
-1.1831579470e-01     2     4     4     2
 1.0942244000e-03     2     4     4     3
-7.0700000000e-08     2     4     4     5
-2.3100000000e-08     2     4     5     1
-4.5900000000e-08     2     4     5     2
 4.0000000000e-10     2     4     5     3
-9.6431000000e-06     2     4     5     5
 9.6100000000e-07     2     5     1     1
-9.9582000000e-06     2     5     1     2
 6.2000000000e-09     2     5     1     3
 9.4000000000e-08     2     5     1     4
-7.6580000000e-07     2     5     3     1
 3.7560000000e-07     2     5     3     2
 7.0200000000e-08     2     5     3     3
-8.1000000000e-09     2     5     3     4
 7.0900000000e-08     2     5     4     1
-4.5900000000e-08     2     5     4     2
-7.7000000000e-09     2     5     4     3
 7.0700000000e-08     2     5     4     4
 7.5951118500e-02     2     5     5     1
-1.1831620430e-01     2     5     5     2
 1.0941825000e-03     2     5     5     3
 9.6431000000e-06     2     5     5     4
 4.4770855000e-03     3     1     1     2
-1.1187110050e-01     3     1     1     3
 2.7291000000e-06     3     1     1     4
-7.8200000000e-08     3     1     1     5
-3.8747936000e-02     3     1     2     2
 7.7942252400e-02     3     1     2     3
 3.9478000000e-05     3     1     2     4
-7.6580000000e-07     3     1     2     5
 2.6100000000e-08     3     1     4     2
 5.7776760000e-04     3     1     4     3
-4.3537768300e-02     3     1     4     4
-1.2700000000e-08     3     1     4     5
 6.2000000000e-09     3     1     5     2
-1.1274200000e-05     3     1     5     3
 2.3300000000e-08     3     1     5     4
-4.3537833600e-02     3     1     5     5
-4.4770855000e-03     3     2     1     1
 7.7942252400e-02     3     2     1     3
 3.9451900000e-05     3     2     1     4
-7.7200000000e-07     3     2     1     5
 3.8747936000e-02     3     2     2     1
-1.1879178380e-01     3     2     2     3
-2.1282900000e-05     3     2     2     4
 3.7560000000e-07     3     2     2     5
-2.6100000000e-08     3     2     4     1
 9.9241000000e-06     3     2     4     3
-1.0942244000e-03     3     2     4     4
-4.0000000000e-10     3     2     4     5
-6.2000000000e-09     3     2     5     1
-7.0200000000e-08     3     2     5     3
 7.7000000000e-09     3     2     5     4
-1.0941825000e-03     3     2     5     5
 1.1187110050e-01     3     3     1     1
-7.7942252400e-02     3     3     1     2
-5.7776760000e-04     3     3     1     4
 1.1274200000e-05     3     3     1     5
-7.7942252400e-02     3     3     2     1
 1.1879178380e-01     3     3     2     2
-9.9241000000e-06     3     3     2     4
 7.0200000000e-08     3     3     2     5
-5.7776760000e-04     3     3     4     1
-9.9241000000e-06     3     3     4     2
 1.3779998770e-01     3     3     4     4
 4.9500000000e-08     3     3     4     5
 1.1274200000e-05     3     3     5     1
 7.0200000000e-08     3     3     5     2
 4.9500000000e-08     3     3     5     4
 1.3780042350e-01     3     3     5     5
-2.7291000000e-06     3     4     1     1
-3.9451900000e-05     3     4     1     2
 5.7776760000e-04     3     4     1     3
-3.6000000000e-08     3     4     1     5
-3.9478000000e-05     3     4     2     1
 2.1282900000e-05     3     4     2     2
 9.9241000000e-06     3     4     2     3
-8.1000000000e-09     3     4     2     5
 4.3537768300e-02     3     4     4     1
 1.0942244000e-03     3     4     4     2
-1.3779998770e-01     3     4     4     3
 4.4100000000e-07     3     4     4     5
-2.3300000000e-08     3     4     5     1
-7.7000000000e-09     3     4     5     2
-4.9500000000e-08     3     4     5     3
 2.2897600000e-05     3     4     5     5
 7.8200000000e-08     3     5     1     1
 7.7200000000e-07     3     5     1     2
-1.1274200000e-05     3     5     1     3
 3.6000000000e-08     3     5     1     4
 7.6580000000e-07     3     5     2     1
-3.7560000000e-07     3     5     2     2
-7.0200000000e-08     3     5     2     3
 8.1000000000e-09     3     5     2     4
 1.2700000000e-08     3     5     4     1
 4.0000000000e-10     3     5     4     2
-4.9500000000e-08     3     5     4     3
-4.4100000000e-07     3     5     4     4
 4.3537833600e-02     3     5     5     1
 1.0941825000e-03     3     5     5     2
-1.3780042350e-01     3     5     5     3
-2.2897600000e-05     3     5     5     4
 5.5039400000e-05     4     1     1     2
 2.7291000000e-06     4     1     1     3
-1.1325714640e-01     4     1     1     4
-5.5400000000e-08     4     1     1     5
-5.1583110000e-04     4     1     2     2
 3.9451900000e-05     4     1     2     3
 7.5951212100e-02     4     1     2     4
 7.0900000000e-08     4     1     2     5
-2.6100000000e-08     4     1     3     2
-5.7776760000e-04     4     1     3     3
 4.3537768300e-02     4     1     3     4
 1.2700000000e-08     4     1     3     5
 9.4000000000e-08     4     1     5     2
 3.6000000000e-08     4     1     5     3
-1.1303900000e-05     4     1     5     4
-5.7947290000e-04     4     1     5     5
-5.5039400000e-05     4     2     1     1
 3.9478000000e-05     4     2     1     3
 7.5951212100e-02     4     2     1     4
-2.3100000000e-08     4     2     1     5
 5.1583110000e-04     4     2     2     1
-2.1282900000e-05     4     2     2     3
-1.1831579470e-01     4     2     2     4
-4.5900000000e-08     4     2     2     5
 2.6100000000e-08     4     2     3     1
-9.9241000000e-06     4     2     3     3
 1.0942244000e-03     4     2     3     4
 4.0000000000e-10     4     2     3     5
-9.4000000000e-08     4     2     5     1
 8.1000000000e-09     4     2     5     3
-7.0700000000e-08     4     2     5     4
-9.6431000000e-06     4     2     5     5
-2.7291000000e-06     4     3     1     1
-3.9478000000e-05     4     3     1     2
 4.3537768300e-02     4     3     1     4
-2.3300000000e-08     4     3     1     5
-3.9451900000e-05     4     3     2     1
 2.1282900000e-05     4     3     2     2
 1.0942244000e-03     4     3     2     4
-7.7000000000e-09     4     3     2     5
 5.7776760000e-04     4     3     3     1
 9.9241000000e-06     4     3     3     2
-1.3779998770e-01     4     3     3     4
-4.9500000000e-08     4     3     3     5
-3.6000000000e-08     4     3     5     1
-8.1000000000e-09     4     3     5     2
 4.4100000000e-07     4     3     5     4
 2.2897600000e-05     4     3     5     5
 1.1325714640e-01     4     4     1     1
-7.5951212100e-02     4     4     1     2
-4.3537768300e-02     4     4     1     3
 1.1303900000e-05     4     4     1     5
-7.5951212100e-02     4     4     2     1
 1.1831579470e-01     4     4     2     2
-1.0942244000e-03     4     4     2     3
 7.0700000000e-08     4     4     2     5
-4.3537768300e-02     4     4     3     1
-1.0942244000e-03     4     4     3     2
 1.3779998770e-01     4     4     3     3
-4.4100000000e-07     4     4     3     5
 1.1303900000e-05     4     4     5     1
 7.0700000000e-08     4     4     5     2
-4.4100000000e-07     4     4     5     3
 1.3718474920e-01     4     4     5     5
 5.5400000000e-08     4     5     1     1
 2.3100000000e-08     4     5     1     2
 2.3300000000e-08     4     5     1     3
-1.1303900000e-05     4     5     1     4
-7.0900000000e-08     4     5     2     1
 4.5900000000e-08     4     5     2     2
 7.7000000000e-09     4     5     2     3
-7.0700000000e-08     4     5     2     4
-1.2700000000e-08     4     5     3     1
-4.0000000000e-10     4     5     3     2
 4.9500000000e-08     4     5     3     3
 4.4100000000e-07     4     5     3     4
 5.7947290000e-04     4     5     5     1
 9.6431000000e-06     4     5     5     2
-2.2897600000e-05     4     5     5     3
-1.3718474920e-01     4     5     5     4
-9.6100000000e-07     5     1     1     2
-7.8200000000e-08     5     1     1     3
-5.5400000000e-08     5     1     1     4
-1.1325790040e-01     5     1     1     5
 9.9582000000e-06     5     1     2     2
-7.7200000000e-07     5     1     2     3
-2.3100000000e-08     5     1     2     4
 7.5951118500e-02     5     1     2     5
-6.2000000000e-09     5     1     3     2
 1.1274200000e-05     5     1     3     3
-2.3300000000e-08     5     1     3     4
 4.3537833600e-02     5     1     3     5
-9.4000000000e-08     5     1     4     2
-3.6000000000e-08     5     1     4     3
 1.1303900000e-05     5     1     4     4
 5.7947290000e-04     5     1     4     5
 9.6100000000e-07     5     2     1     1
-7.6580000000e-07     5     2     1     3
 7.0900000000e-08     5     2     1     4
 7.5951118500e-02     5     2     1     5
-9.9582000000e-06     5     2     2     1
 3.7560000000e-07     5     2     2     3
-4.5900000000e-08     5     2     2     4
-1.1831620430e-01     5     2     2     5
 6.2000000000e-09     5     2     3     1
 7.0200000000e-08     5     2     3     3
-7.7000000000e-09     5     2     3     4
 1.0941825000e-03     5     2     3     5
 9.4000000000e-08     5     2     4     1
-8.1000000000e-09     5     2     4     3
 7.0700000000e-08     5     2     4     4
 9.6431000000e-06     5     2     4     5
 7.8200000000e-08     5     3     1     1
 7.6580000000e-07     5     3     1     2
 1.2700000000e-08     5     3     1     4
 4.3537833600e-02     5     3     1     5
 7.7200000000e-07     5     3     2     1
-3.7560000000e-07     5     3     2     2
 4.0000000000e-10     5     3     2     4
 1.0941825000e-03     5     3     2     5
-1.1274200000e-05     5     3     3     1
-7.0200000000e-08     5     3     3     2
-4.9500000000e-08     5     3     3     4
-1.3780042350e-01     5     3     3     5
 3.6000000000e-08     5     3     4     1
 8.1000000000e-09     5     3     4     2
-4.4100000000e-07     5     3     4     4
-2.2897600000e-05     5     3     4     5
 5.5400000000e-08     5     4     1     1
-7.0900000000e-08     5     4     1     2
-1.2700000000e-08     5     4     1     3
 5.7947290000e-04     5     4     1     5
 2.3100000000e-08     5     4     2     1
 4.5900000000e-08     5     4     2     2
-4.0000000000e-10     5     4     2     3
 9.6431000000e-06     5     4     2     5
 2.3300000000e-08     5     4     3     1
 7.7000000000e-09     5     4     3     2
 4.9500000000e-08     5     4     3     3
-2.2897600000e-05     5     4     3     5
-1.1303900000e-05     5     4     4     1
-7.0700000000e-08     5     4     4     2
 4.4100000000e-07     5     4     4     3
-1.3718474920e-01     5     4     4     5
 1.1325790040e-01     5     5     1     1
-7.5951118500e-02     5     5     1     2
-4.3537833600e-02     5     5     1     3
-5.7947290000e-04     5     5     1     4
-7.5951118500e-02     5     5     2     1
 1.1831620430e-01     5     5     2     2
-1.0941825000e-03     5     5     2     3
-9.6431000000e-06     5     5     2     4
-4.3537833600e-02     5     5     3     1
-1.0941825000e-03     5     5     3     2
 1.3780042350e-01     5     5     3     3
 2.2897600000e-05     5     5     3     4
-5.7947290000e-04     5     5     4     1
-9.6431000000e-06     5     5     4     2
 2.2897600000e-05     5     5     4     3
 1.3718474920e-01     5     5     4     4
0.0 0 0 0 0
 6.7809556300e-02     1     1     2     2
-4.4770855000e-03     1     1     2     3
-5.5039400000e-05     1     1     2     4
 9.6100000000e-07     1     1     2     5
-4.4770855000e-03     1     1     3     2
 1.1187110050e-01     1     1     3     3
-2.7291000000e-06     1     1     3     4
 7.8200000000e-08     1     1     3     5
-5.5039400000e-05     1     1     4     2
-2.7291000000e-06     1     1     4     3
 1.1325714640e-01     1     1     4     4
 5.5400000000e-08     1     1     4     5
 9.6100000000e-07     1     1     5     2
 7.8200000000e-08     1     1     5     3
 5.5400000000e-08     1     1     5     4
 1.1325790040e-01     1     1     5     5
-6.7809556300e-02     1     2     2     1
 3.8747936000e-02     1     2     2     3
 5.1583110000e-04     1     2     2     4
-9.9582000000e-06     1     2     2     5
 4.4770855000e-03     1     2     3     1
-7.7942252400e-02     1     2     3     3
-3.9451900000e-05     1     2     3     4
 7.7200000000e-07     1     2     3     5
 5.5039400000e-05     1     2     4     1
-3.9478000000e-05     1     2     4     3
-7.5951212100e-02     1     2     4     4
 2.3100000000e-08     1     2     4     5
-9.6100000000e-07     1     2     5     1
 7.6580000000e-07     1     2     5     3
-7.0900000000e-08     1     2     5     4
-7.5951118500e-02     1     2     5     5
 4.4770855000e-03     1     3     2     1
-3.8747936000e-02     1     3     2     2
 2.6100000000e-08     1     3     2     4
 6.2000000000e-09     1     3     2     5
-1.1187110050e-01     1     3     3     1
 7.7942252400e-02     1     3     3     2
 5.7776760000e-04     1     3     3     4
-1.1274200000e-05     1     3     3     5
 2.7291000000e-06     1     3     4     1
 3.9478000000e-05     1     3     4     2
-4.3537768300e-02     1     3     4     4
 2.3300000000e-08     1     3     4     5
-7.8200000000e-08     1     3     5     1
-7.6580000000e-07     1     3     5     2
-1.2700000000e-08     1     3     5     4
-4.3537833600e-02     1     3     5     5
 5.5039400000e-05     1     4     2     1
-5.1583110000e-04     1     4     2     2
-2.6100000000e-08     1     4     2     3
 9.4000000000e-08     1     4     2     5
 2.7291000000e-06     1     4     3     1
 3.9451900000e-05     1     4     3     2
-5.7776760000e-04     1     4     3     3
 3.6000000000e-08     1     4     3     5
-1.1325714640e-01     1     4     4     1
 7.5951212100e-02     1     4     4     2
 4.3537768300e-02     1     4     4     3
-1.1303900000e-05     1     4     4     5
-5.5400000000e-08     1     4     5     1
 7.0900000000e-08     1     4     5     2
 1.2700000000e-08     1     4     5     3
-5.7947290000e-04     1     4     5     5
-9.6100000000e-07     1     5     2     1
 9.9582000000e-06     1     5     2     2
-6.2000000000e-09     1     5     2     3
-9.4000000000e-08     1     5     2     4
-7.8200000000e-08     1     5     3     1
-7.7200000000e-07     1     5     3     2
 1.1274200000e-05     1     5     3     3
-3.6000000000e-08     1     5     3     4
-5.5400000000e-08     1     5     4     1
-2.3100000000e-08     1     5     4     2
-2.3300000000e-08     1     5     4     3
 1.1303900000e-05     1     5     4     4
-1.1325790040e-01     1     5     5     1
 7.5951118500e-02     1     5     5     2
 4.3537833600e-02     1     5     5     3
 5.7947290000e-04     1     5     5     4
-6.7809556300e-02     2     1     1     2
 4.4770855000e-03     2     1     1     3
 5.5039400000e-05     2     1     1     4
-9.6100000000e-07     2     1     1     5
 3.8747936000e-02     2     1     3     2
-7.7942252400e-02     2     1     3     3
-3.9478000000e-05     2     1     3     4
 7.6580000000e-07     2     1     3     5
 5.1583110000e-04     2     1     4     2
-3.9451900000e-05     2     1     4     3
-7.5951212100e-02     2     1     4     4
-7.0900000000e-08     2     1     4     5
-9.9582000000e-06     2     1     5     2
 7.7200000000e-07     2     1     5     3
 2.3100000000e-08     2     1     5     4
-7.5951118500e-02     2     1     5     5
 6.7809556300e-02     2     2     1     1
-3.8747936000e-02     2     2     1     3
-5.1583110000e-04     2     2     1     4
 9.9582000000e-06     2     2     1     5
-3.8747936000e-02     2     2     3     1
 1.1879178380e-01     2     2     3     3
 2.1282900000e-05     2     2     3     4
-3.7560000000e-07     2     2     3     5
-5.1583110000e-04     2     2     4     1
 2.1282900000e-05     2     2     4     3
 1.1831579470e-01     2     2     4     4
 4.5900000000e-08     2     2     4     5
 9.9582000000e-06     2     2     5     1
-3.7560000000e-07     2     2     5     3
 4.5900000000e-08     2     2     5     4
 1.1831620430e-01     2     2     5     5
-4.4770855000e-03     2     3     1     1
 3.8747936000e-02     2     3     1     2
-2.6100000000e-08     2     3     1     4
-6.2000000000e-09     2     3     1     5
 7.7942252400e-02     2     3     3     1
-1.1879178380e-01     2     3     3     2
 9.9241000000e-06     2     3     3     4
-7.0200000000e-08     2     3     3     5
 3.9451900000e-05     2     3     4     1
-2.1282900000e-05     2     3     4     2
-1.0942244000e-03     2     3     4     4
 7.7000000000e-09     2     3     4     5
-7.7200000000e-07     2     3     5     1
 3.7560000000e-07     2     3     5     2
-4.0000000000e-10     2     3     5     4
-1.0941825000e-03     2     3     5     5
-5.5039400000e-05     2     4     1     1
 5.1583110000e-04     2     4     1     2
 2.6100000000e-08     2     4     1     3
-9.4000000000e-08     2     4     1     5
 3.9478000000e-05     2     4     3     1
-2.1282900000e-05     2     4     3     2
-9.9241000000e-06     2     4     3     3
 8.1000000000e-09     2     4     3     5
 7.5951212100e-02     2     4     4     1
-1.1831579470e-01     2     4     4     2
 1.0942244000e-03     2     4     4     3
-7.0700000000e-08     2     4     4     5
-2.3100000000e-08     2     4     5     1
-4.5900000000e-08     2     4     5     2
 4.0000000000e-10     2     4     5     3
-9.6431000000e-06     2     4     5     5
 9.6100000000e-07     2     5     1     1
-9.9582000000e-06     2     5     1     2
 6.2000000000e-09     2     5     1     3
 9.4000000000e-08     2     5     1     4
-7.6580000000e-07     2     5     3     1
 3.7560000000e-07     2     5     3     2
 7.0200000000e-08     2     5     3     3
-8.1000000000e-09     2     5     3     4
 7.0900000000e-08     2     5     4     1
-4.5900000000e-08     2     5     4     2
-7.7000000000e-09     2     5     4     3
 7.0700000000e-08     2     5     4     4
 7.5951118500e-02     2     5     5     1
-1.1831620430e-01     2     5     5     2
 1.0941825000e-03     2     5     5     3
 9.6431000000e-06     2     5     5     4
 4.4770855000e-03     3     1     1     2
-1.1187110050e-01     3     1     1     3
 2.7291000000e-06     3     1     1     4
-7.8200000000e-08     3     1     1     5
-3.8747936000e-02     3     1     2     2
 7.7942252400e-02     3     1     2     3
 3.9478000000e-05     3     1     2     4
-7.6580000000e-07     3     1     2     5
 2.6100000000e-08     3     1     4     2
 5.7776760000e-04     3     1     4     3
-4.3537768300e-02     3     1     4     4
-1.2700000000e-08     3     1     4     5
 6.2000000000e-09     3     1     5     2
-1.1274200000e-05     3     1     5     3
 2.3300000000e-08     3     1     5     4
-4.3537833600e-02     3     1     5     5
-4.4770855000e-03     3     2     1     1
 7.7942252400e-02     3     2     1     3
 3.9451900000e-05     3     2     1     4
-7.7200000000e-07     3     2     1     5
 3.8747936000e-02     3     2     2     1
-1.1879178380e-01     3     2     2     3
-2.1282900000e-05     3     2     2     4
 3.7560000000e-07     3     2     2     5
-2.6100000000e-08     3     2     4     1
 9.9241000000e-06     3     2     4     3
-1.0942244000e-03     3     2     4     4
-4.0000000000e-10     3     2     4     5
-6.2000000000e-09     3     2     5     1
-7.0200000000e-08     3     2     5     3
 7.7000000000e-09     3     2     5     4
-1.0941825000e-03     3     2     5     5
 1.1187110050e-01     3     3     1     1
-7.7942252400e-02     3     3     1     2
-5.7776760000e-04     3     3     1     4
 1.1274200000e-05     3     3     1     5
-7.7942252400e-02     3     3     2     1
 1.1879178380e-01     3     3     2     2
-9.9241000000e-06     3     3     2     4
 7.0200000000e-08     3     3     2     5
-5.7776760000e-04     3     3     4     1
-9.9241000000e-06     3     3     4     2
 1.3779998770e-01     3     3     4     4
 4.9500000000e-08     3     3     4     5
 1.1274200000e-05     3     3     5     1
 7.0200000000e-08     3     3     5     2
 4.9500000000e-08     3     3     5     4
 1.3780042350e-01     3     3     5     5
-2.7291000000e-06     3     4     1     1
-3.9451900000e-05     3     4     1     2
 5.7776760000e-04     3     4     1     3
-3.6000000000e-08     3     4     1     5
-3.9478000000e-05     3     4     2     1
 2.1282900000e-05     3     4     2     2
 9.9241000000e-06     3     4     2     3
-8.1000000000e-09     3     4     2     5
 4.3537768300e-02     3     4     4     1
 1.0942244000e-03     3     4     4     2
-1.3779998770e-01     3     4     4     3
 4.4100000000e-07     3     4     4     5
-2.3300000000e-08     3     4     5     1
-7.7000000000e-09     3     4     5     2
-4.9500000000e-08     3     4     5     3
 2.2897600000e-05     3     4     5     5
 7.8200000000e-08     3     5     1     1
 7.7200000000e-07     3     5     1     2
-1.1274200000e-05     3     5     1     3
 3.6000000000e-08     3     5     1     4
 7.6580000000e-07     3     5     2     1
-3.7560000000e-07     3     5     2     2
-7.0200000000e-08     3     5     2     3
 8.1000000000e-09     3     5     2     4
 1.2700000000e-08     3     5     4     1
 4.0000000000e-10     3     5     4     2
-4.9500000000e-08     3     5     4     3
-4.4100000000e-07     3     5     4     4
 4.3537833600e-02     3     5     5     1
 1.0941825000e-03     3     5     5     2
-1.3780042350e-01     3     5     5     3
-2.2897600000e-05     3     5     5     4
 5.5039400000e-05     4     1     1     2
 2.7291000000e-06     4     1     1     3
-1.1325714640e-01     4     1     1     4
-5.5400000000e-08     4     1     1     5
-5.1583110000e-04     4     1     2     2
 3.9451900000e-05     4     1     2     3
 7.5951212100e-02     4     1     2     4
 7.0900000000e-08     4     1     2     5
-2.6100000000e-08     4     1     3     2
-5.7776760000e-04     4     1     3     3
 4.3537768300e-02     4     1     3     4
 1.2700000000e-08     4     1     3     5
 9.4000000000e-08     4     1     5     2
 3.6000000000e-08     4     1     5     3
-1.1303900000e-05     4     1     5     4
-5.7947290000e-04     4     1     5     5
-5.5039400000e-05     4     2     1     1
 3.9478000000e-05     4     2     1     3
 7.5951212100e-02     4     2     1     4
-2.3100000000e-08     4     2     1     5
 5.1583110000e-04     4     2     2     1
-2.1282900000e-05     4     2     2     3
-1.1831579470e-01     4     2     2     4
-4.5900000000e-08     4     2     2     5
 2.6100000000e-08     4     2     3     1
-9.9241000000e-06     4     2     3     3
 1.0942244000e-03     4     2     3     4
 4.0000000000e-10     4     2     3     5
-9.4000000000e-08     4     2     5     1
 8.1000000000e-09     4     2     5     3
-7.0700000000e-08     4     2     5     4
-9.6431000000e-06     4     2     5     5
-2.7291000000e-06     4     3     1     1
-3.9478000000e-05     4     3     1     2
 4.3537768300e-02     4     3     1     4
-2.3300000000e-08     4     3     1     5
-3.9451900000e-05     4     3     2     1
 2.1282900000e-05     4     3     2     2
 1.0942244000e-03     4     3     2     4
-7.7000000000e-09     4     3     2     5
 5.7776760000e-04     4     3     3     1
 9.9241000000e-06     4     3     3     2
-1.3779998770e-01     4     3     3     4
-4.9500000000e-08     4     3     3     5
-3.6000000000e-08     4     3     5     1
-8.1000000000e-09     4     3     5     2
 4.4100000000e-07     4     3     5     4
 2.2897600000e-05     4     3     5     5
 1.1325714640e-01     4     4     1     1
-7.5951212100e-02     4     4     1     2
-4.3537768300e-02     4     4     1     3
 1.1303900000e-05     4     4     1     5
-7.5951212100e-02     4     4     2     1
 1.1831579470e-01     4     4     2     2
-1.0942244000e-03     4     4     2     3
 7.0700000000e-08     4     4     2     5
-4.3537768300e-02     4     4     3     1
-1.0942244000e-03     4     4     3     2
 1.3779998770e-01     4     4     3     3
-4.4100000000e-07     4     4     3     5
 1.1303900000e-05     4     4     5     1
 7.0700000000e-08     4     4     5     2
-4.4100000000e-07     4     4     5     3
 1.3718474920e-01     4     4     5     5
 5.5400000000e-08     4     5     1     1
 2.3100000000e-08     4     5     1     2
 2.3300000000e-08     4     5     1     3
-1.1303900000e-05     4     5     1     4
-7.0900000000e-08     4     5     2     1
 4.5900000000e-08     4     5     2     2
 7.7000000000e-09     4     5     2     3
-7.0700000000e-08     4     5     2     4