&FCI NORB=  5,NELEC=  2,MS2=0,
 ORBSYM=1,1,1,1,1
 ISYM=1,
&END
-6.9095908800e-02     1     1     2     2
 3.6087573900e-02     1     1     2     3
 2.9343606000e-03     1     1     2     4
-7.0804000000e-06     1     1     2     5
 3.6087573900e-02     1     1     3     2
 6.7133933800e-02     1     1     3     3
-1.0788092000e-03     1     1     3     4
 2.3940000000e-06     1     1     3     5
 2.9343606000e-03     1     1     4     2
-1.0788092000e-03     1     1     4     3
 8.7223139000e-02     1     1     4     4
 9.8012000000e-06     1     1     4     5
-7.0804000000e-06     1     1     5     2
 2.3940000000e-06     1     1     5     3
 9.8012000000e-06     1     1     5     4
 9.3091487200e-02     1     1     5     5
 6.9095908800e-02     1     2     2     1
-2.0214467800e-02     1     2     2     3
-9.7894325000e-03     1     2     2     4
 2.3756200000e-05     1     2     2     5
-3.6087573900e-02     1     2     3     1
-6.4616562000e-02     1     2     3     3
 4.2327522000e-03     1     2     3     4
-9.9448000000e-06     1     2     3     5
-2.9343606000e-03     1     2     4     1
 5.5819276000e-03     1     2     4     3
-8.4477821900e-02     1     2     4     4
-7.0380000000e-06     1     2     4     5
 7.0804000000e-06     1     2     5     1
-1.3274400000e-05     1     2     5     3
-7.0734000000e-06     1     2     5     4
-8.7769628000e-02     1     2     5     5
-3.6087573900e-02     1     3     2     1
 2.0214467800e-02     1     3     2     2
-1.3491754000e-03     1     3     2     4
 3.3296000000e-06     1     3     2     5
-6.7133933800e-02     1     3     3     1
 6.4616562000e-02     1     3     3     2
-3.7987953000e-03     1     3     3     4
 9.2829000000e-06     1     3     3     5
 1.0788092000e-03     1     3     4     1
-5.5819276000e-03     1     3     4     2
-6.1910741100e-02     1     3     4     4
-2.0174000000e-06     1     3     4     5
-2.3940000000e-06     1     3     5     1
 1.3274400000e-05     1     3     5     2
-1.9864000000e-06     1     3     5     4
-6.3549049300e-02     1     3     5     5
-2.9343606000e-03     1     4     2     1
 9.7894325000e-03     1     4     2     2
 1.3491754000e-03     1     4     2     3
 3.5400000000e-08     1     4     2     5
 1.0788092000e-03     1     4     3     1
-4.2327522000e-03     1     4     3     2
 3.7987953000e-03     1     4     3     3
-3.1000000000e-08     1     4     3     5
-8.7223139000e-02     1     4     4     1
 8.4477821900e-02     1     4     4     2
 6.1910741100e-02     1     4     4     3
 1.3802200000e-05     1     4     4     5
-9.8012000000e-06     1     4     5     1
 7.0734000000e-06     1     4     5     2
 1.9864000000e-06     1     4     5     3
 5.6768649000e-03     1     4     5     5
 7.0804000000e-06     1     5     2     1
-2.3756200000e-05     1     5     2     2
-3.3296000000e-06     1     5     2     3
-3.5400000000e-08     1     5     2     4
-2.3940000000e-06     1     5     3     1
 9.9448000000e-06     1     5     3     2
-9.2829000000e-06     1     5     3     3
 3.1000000000e-08     1     5     3     4
-9.8012000000e-06     1     5     4     1
 7.0380000000e-06     1     5     4     2
 2.0174000000e-06     1     5     4     3
-1.3802200000e-05     1     5     4     4
-9.3091487200e-02     1     5     5     1
 8.7769628000e-02     1     5     5     2
 6.3549049300e-02     1     5     5     3
-5.6768649000e-03     1     5     5     4
 6.9095908800e-02     2     1     1     2
-3.6087573900e-02     2     1     1     3
-2.9343606000e-03     2     1     1     4
 7.0804000000e-06     2     1     1     5
-2.0214467800e-02     2     1     3     2
-6.4616562000e-02     2     1     3     3
 5.5819276000e-03     2     1     3     4
-1.3274400000e-05     2     1     3     5
-9.7894325000e-03     2     1     4     2
 4.2327522000e-03     2     1     4     3
-8.4477821900e-02     2     1     4     4
-7.0734000000e-06     2     1     4     5
 2.3756200000e-05     2     1     5     2
-9.9448000000e-06     2     1     5     3
-7.0380000000e-06     2     1     5     4
-8.7769628000e-02     2     1     5     5
-6.9095908800e-02     2     2     1     1
 2.0214467800e-02     2     2     1     3
 9.7894325000e-03     2     2     1     4
-2.3756200000e-05     2     2     1     5
 2.0214467800e-02     2     2     3     1
-4.6464535200e-02     2     2     3     3
-1.0637240000e-04     2     2     3     4
 1.9370000000e-07     2     2     3     5
 9.7894325000e-03     2     2     4     1
-1.0637240000e-04     2     2     4     3
-1.5365997200e-02     2     2     4     4
-5.2525000000e-06     2     2     4     5
-2.3756200000e-05     2     2     5     1
 1.9370000000e-07     2     2     5     3
-5.2525000000e-06     2     2     5     4
-1.6780140400e-02     2     2     5     5
 3.6087573900e-02     2     3     1     1
-2.0214467800e-02     2     3     1     2
 1.3491754000e-03     2     3     1     4
-3.3296000000e-06     2     3     1     5
 6.4616562000e-02     2     3     3     1
 4.6464535200e-02     2     3     3     2
-8.1695536000e-03     2     3     3     4
 1.9630100000e-05     2     3     3     5
-4.2327522000e-03     2     3     4     1
 1.0637240000e-04     2     3     4     2
 7.1978435800e-02     2     3     4     4
 6.7739000000e-06     2     3     4     5
 9.9448000000e-06     2     3     5     1
-1.9370000000e-07     2     3     5     2
 6.7700000000e-06     2     3     5     4
 7.5058815600e-02     2     3     5     5
 2.9343606000e-03     2     4     1     1
-9.7894325000e-03     2     4     1     2
-1.3491754000e-03     2     4     1     3
-3.5400000000e-08     2     4     1     5
-5.5819276000e-03     2     4     3     1
 1.0637240000e-04     2     4     3     2
 8.1695536000e-03     2     4     3     3
 3.9000000000e-09     2     4     3     5
 8.4477821900e-02     2     4     4     1
 1.5365997200e-02     2     4     4     2
-7.1978435800e-02     2     4     4     3
 1.5171400000e-05     2     4     4     5
 7.0380000000e-06     2     4     5     1
 5.2525000000e-06     2     4     5     2
-6.7700000000e-06     2     4     5     3
 6.0689885000e-03     2     4     5     5
-7.0804000000e-06     2     5     1     1
 2.3756200000e-05     2     5     1     2
 3.3296000000e-06     2     5     1     3
 3.5400000000e-08     2     5     1     4
 1.3274400000e-05     2     5     3     1
-1.9370000000e-07     2     5     3     2
-1.9630100000e-05     2     5     3     3
-3.9000000000e-09     2     5     3     4
 7.0734000000e-06     2     5     4     1
 5.2525000000e-06     2     5     4     2
-6.7739000000e-06     2     5     4     3
-1.5171400000e-05     2     5     4     4
 8.7769628000e-02     2     5     5     1
 1.6780140400e-02     2     5     5     2
-7.5058815600e-02     2     5     5     3
-6.0689885000e-03     2     5     5     4
-3.6087573900e-02     3     1     1     2
-6.7133933800e-02     3     1     1     3
 1.0788092000e-03     3     1     1     4
-2.3940000000e-06     3     1     1     5
 2.0214467800e-02     3     1     2     2
 6.4616562000e-02     3     1     2     3
-5.5819276000e-03     3     1     2     4
 1.3274400000e-05     3     1     2     5
-1.3491754000e-03     3     1     4     2
-3.7987953000e-03     3     1     4     3
-6.1910741100e-02     3     1     4     4
-1.9864000000e-06     3     1     4     5
 3.3296000000e-06     3     1     5     2
 9.2829000000e-06     3     1     5     3
-2.0174000000e-06     3     1     5     4
-6.3549049300e-02     3     1     5     5
 3.6087573900e-02     3     2     1     1
 6.4616562000e-02     3     2     1     3
-4.2327522000e-03     3     2     1     4
 9.9448000000e-06     3     2     1     5
-2.0214467800e-02     3     2     2     1
 4.6464535200e-02     3     2     2     3
 1.0637240000e-04     3     2     2     4
-1.9370000000e-07     3     2     2     5
 1.3491754000e-03     3     2     4     1
-8.1695536000e-03     3     2     4     3
 7.1978435800e-02     3     2     4     4
 6.7700000000e-06     3     2     4     5
-3.3296000000e-06     3     2     5     1
 1.9630100000e-05     3     2     5     3
 6.7739000000e-06     3     2     5     4
 7.5058815600e-02     3     2     5     5
 6.7133933800e-02     3     3     1     1
-6.4616562000e-02     3     3     1     2
 3.7987953000e-03     3     3     1     4
-9.2829000000e-06     3     3     1     5
-6.4616562000e-02     3     3     2     1
-4.6464535200e-02     3     3     2     2
 8.1695536000e-03     3     3     2     4
-1.9630100000e-05     3     3     2     5
 3.7987953000e-03     3     3     4     1
 8.1695536000e-03     3     3     4     2
 1.0859442960e-01     3     3     4     4
 1.0426400000e-05     3     3     4     5
-9.2829000000e-06     3     3     5     1
-1.9630100000e-05     3     3     5     2
 1.0426400000e-05     3     3     5     4
 1.1512086270e-01     3     3     5     5
-1.0788092000e-03     3     4     1     1
 4.2327522000e-03     3     4     1     2
-3.7987953000e-03     3     4     1     3
 3.1000000000e-08     3     4     1     5
 5.5819276000e-03     3     4     2     1
-1.0637240000e-04     3     4     2     2
-8.1695536000e-03     3     4     2     3
-3.9000000000e-09     3     4     2     5
 6.1910741100e-02     3     4     4     1
-7.1978435800e-02     3     4     4     2
-1.0859442960e-01     3     4     4     3
-7.8378000000e-06     3     4     4     5
 2.0174000000e-06     3     4     5     1
-6.7739000000e-06     3     4     5     2
-1.0426400000e-05     3     4     5     3
-3.2701822000e-03     3     4     5     5
 2.3940000000e-06     3     5     1     1
-9.9448000000e-06     3     5     1     2
 9.2829000000e-06     3     5     1     3
-3.1000000000e-08     3     5     1     4
-1.3274400000e-05     3     5     2     1
 1.9370000000e-07     3     5     2     2
 1.9630100000e-05     3     5     2     3
 3.9000000000e-09     3     5     2     4
 1.9864000000e-06     3     5     4     1
-6.7700000000e-06     3     5     4     2
-1.0426400000e-05     3     5     4     3
 7.8378000000e-06     3     5     4     4
 6.3549049300e-02     3     5     5     1
-7.5058815600e-02     3     5     5     2
-1.1512086270e-01     3     5     5     3
 3.2701822000e-03     3     5     5     4
-2.9343606000e-03     4     1     1     2
 1.0788092000e-03     4     1     1     3
-8.7223139000e-02     4     1     1     4
-9.8012000000e-06     4     1     1     5
 9.7894325000e-03     4     1     2     2
-4.2327522000e-03     4     1     2     3
 8.4477821900e-02     4     1     2     4
 7.0734000000e-06     4     1     2     5
 1.3491754000e-03     4     1     3     2
 3.7987953000e-03     4     1     3     3
 6.1910741100e-02     4     1     3     4
 1.9864000000e-06     4     1     3     5
 3.5400000000e-08     4     1     5     2
-3.1000000000e-08     4     1     5     3
 1.3802200000e-05     4     1     5     4
 5.6768649000e-03     4     1     5     5
 2.9343606000e-03     4     2     1     1
-5.5819276000e-03     4     2     1     3
 8.4477821900e-02     4     2     1     4
 7.0380000000e-06     4     2     1     5
-9.7894325000e-03     4     2     2     1
 1.0637240000e-04     4     2     2     3
 1.5365997200e-02     4     2     2     4
 5.2525000000e-06     4     2     2     5
-1.3491754000e-03     4     2     3     1
 8.1695536000e-03     4     2     3     3
-7.1978435800e-02     4     2     3     4
-6.7700000000e-06     4     2     3     5
-3.5400000000e-08     4     2     5     1
 3.9000000000e-09     4     2     5     3
 1.5171400000e-05     4     2     5     4
 6.0689885000e-03     4     2     5     5
-1.0788092000e-03     4     3     1     1
 5.5819276000e-03     4     3     1     2
 6.1910741100e-02     4     3     1     4
 2.0174000000e-06     4     3     1     5
 4.2327522000e-03     4     3     2     1
-1.0637240000e-04     4     3     2     2
-7.1978435800e-02     4     3     2     4
-6.7739000000e-06     4     3     2     5
-3.7987953000e-03     4     3     3     1
-8.1695536000e-03     4     3     3     2
-1.0859442960e-01     4     3     3     4
-1.0426400000e-05     4     3     3     5
 3.1000000000e-08     4     3     5     1
-3.9000000000e-09     4     3     5     2
-7.8378000000e-06     4     3     5     4
-3.2701822000e-03     4     3     5     5
 8.7223139000e-02     4     4     1     1
-8.4477821900e-02     4     4     1     2
-6.1910741100e-02     4     4     1     3
-1.3802200000e-05     4     4     1     5
-8.4477821900e-02     4     4     2     1
-1.5365997200e-02     4     4     2     2
 7.1978435800e-02     4     4     2     3
-1.5171400000e-05     4     4     2     5
-6.1910741100e-02     4     4     3     1
 7.1978435800e-02     4     4     3     2
 1.0859442960e-01     4     4     3     3
 7.8378000000e-06     4     4     3     5
-1.3802200000e-05     4     4     5     1
-1.5171400000e-05     4     4     5     2
 7.8378000000e-06     4     4     5     3
 1.3536432690e-01     4     4     5     5
 9.8012000000e-06     4     5     1     1
-7.0380000000e-06     4     5     1     2
-2.0174000000e-06     4     5     1     3
 1.3802200000e-05     4     5     1     4
-7.0734000000e-06     4     5     2     1
-5.2525000000e-06     4     5     2     2
 6.7739000000e-06     4     5     2     3
 1.5171400000e-05     4     5     2     4
-1.9864000000e-06     4     5     3     1
 6.7700000000e-06     4     5     3     2
 1.0426400000e-05     4     5     3     3
-7.8378000000e-06     4     5     3     4
-5.6768649000e-03     4     5     5     1
-6.0689885000e-03     4     5     5     2
 3.2701822000e-03     4     5     5     3
-1.3536432690e-01     4     5     5     4
 7.0804000000e-06     5     1     1     2
-2.3940000000e-06     5     1     1     3
-9.8012000000e-06     5     1     1     4
-9.3091487200e-02     5     1     1     5
-2.3756200000e-05     5     1     2     2
 9.9448000000e-06     5     1     2     3
 7.0380000000e-06     5     1     2     4
 8.7769628000e-02     5     1     2     5
-3.3296000000e-06     5     1     3     2
-9.2829000000e-06     5     1     3     3
 2.0174000000e-06     5     1     3     4
 6.3549049300e-02     5     1     3     5
-3.5400000000e-08     5     1     4     2
 3.1000000000e-08     5     1     4     3
-1.3802200000e-05     5     1     4     4
-5.6768649000e-03     5     1     4     5
-7.0804000000e-06     5     2     1     1
 1.3274400000e-05     5     2     1     3
 7.0734000000e-06     5     2     1     4
 8.7769628000e-02     5     2     1     5
 2.3756200000e-05     5     2     2     1
-1.9370000000e-07     5     2     2     3
 5.2525000000e-06     5     2     2     4
 1.6780140400e-02     5     2     2     5
 3.3296000000e-06     5     2     3     1
-1.9630100000e-05     5     2     3     3
-6.7739000000e-06     5     2     3     4
-7.5058815600e-02     5     2     3     5
 3.5400000000e-08     5     2     4     1
-3.9000000000e-09     5     2     4     3
-1.5171400000e-05     5     2     4     4
-6.0689885000e-03     5     2     4     5
 2.3940000000e-06     5     3     1     1
-1.3274400000e-05     5     3     1     2
 1.9864000000e-06     5     3     1     4
 6.3549049300e-02     5     3     1     5
-9.9448000000e-06     5     3     2     1
 1.9370000000e-07     5     3     2     2
-6.7700000000e-06     5     3     2     4
-7.5058815600e-02     5     3     2     5
 9.2829000000e-06     5     3     3     1
 1.9630100000e-05     5     3     3     2
-1.0426400000e-05     5     3     3     4
-1.1512086270e-01     5     3     3     5
-3.1000000000e-08     5     3     4     1
 3.9000000000e-09     5     3     4     2
 7.8378000000e-06     5     3     4     4
 3.2701822000e-03     5     3     4     5
 9.8012000000e-06     5     4     1     1
-7.0734000000e-06     5     4     1     2
-1.9864000000e-06     5     4     1     3
-5.6768649000e-03     5     4     1     5
-7.0380000000e-06     5     4     2     1
-5.2525000000e-06     5     4     2     2
 6.7700000000e-06     5     4     2     3
-6.0689885000e-03     5     4     2     5
-2.0174000000e-06     5     4     3     1
 6.7739000000e-06     5     4     3     2
 1.0426400000e-05     5     4     3     3
 3.2701822000e-03     5     4     3     5
 1.3802200000e-05     5     4     4     1
 1.5171400000e-05     5     4     4     2
-7.8378000000e-06     5     4     4     3
-1.3536432690e-01     5     4     4     5
 9.3091487200e-02     5     5     1     1
-8.7769628000e-02     5     5     1     2
-6.3549049300e-02     5     5     1     3
 5.6768649000e-03     5     5     1     4
-8.7769628000e-02     5     5     2     1
-1.6780140400e-02     5     5     2     2
 7.5058815600e-02     5     5     2     3
 6.0689885000e-03     5     5     2     4
-6.3549049300e-02     5     5     3     1
 7.5058815600e-02     5     5     3     2
 1.1512086270e-01     5     5     3     3
-3.2701822000e-03     5     5     3     4
 5.6768649000e-03     5     5     4     1
 6.0689885000e-03     5     5     4     2
-3.2701822000e-03     5     5     4     3
 1.3536432690e-01     5     5     4     4
0.0 0 0 0 0
-6.9095908800e-02     1     1     2     2
 3.6087573900e-02     1     1     2     3
 2.9343606000e-03     1     1     2     4
-7.0804000000e-06     1     1     2     5
 3.6087573900e-02     1     1     3     2
 6.7133933800e-02     1     1     3     3
-1.0788092000e-03     1     1     3     4
 2.3940000000e-06     1     1     3     5
 2.9343606000e-03     1     1     4     2
-1.0788092000e-03     1     1     4     3
 8.7223139000e-02     1     1     4     4
 9.8012000000e-06     1     1     4     5
-7.0804000000e-06     1     1     5     2
 2.3940000000e-06     1     1     5     3
 9.8012000000e-06     1     1     5     4
 9.3091487200e-02     1     1     5     5
 6.9095908800e-02     1     2     2     1
-2.0214467800e-02     1     2     2     3
-9.7894325000e-03     1     2     2     4
 2.3756200000e-05     1     2     2     5
-3.6087573900e-02     1     2     3     1
-6.4616562000e-02     1     2     3     3
 4.2327522000e-03     1     2     3     4
-9.9448000000e-06     1     2     3     5
-2.9343606000e-03     1     2     4     1
 5.5819276000e-03     1     2     4     3
-8.4477821900e-02     1     2     4     4
-7.0380000000e-06     1     2     4     5
 7.0804000000e-06     1     2     5     1
-1.3274400000e-05     1     2     5     3
-7.0734000000e-06     1     2     5     4
-8.7769628000e-02     1     2     5     5
-3.6087573900e-02     1     3     2     1
 2.0214467800e-02     1     3     2     2
-1.3491754000e-03     1     3     2     4
 3.3296000000e-06     1     3     2     5
-6.7133933800e-02     1     3     3     1
 6.4616562000e-02     1     3     3     2
-3.7987953000e-03     1     3     3     4
 9.2829000000e-06     1     3     3     5
 1.0788092000e-03     1     3     4     1
-5.5819276000e-03     1     3     4     2
-6.1910741100e-02     1     3     4     4
-2.0174000000e-06     1     3     4     5
-2.3940000000e-06     1     3     5     1
 1.3274400000e-05     1     3     5     2
-1.9864000000e-06     1     3     5     4
-6.3549049300e-02     1     3     5     5
-2.9343606000e-03     1     4     2     1
 9.7894325000e-03     1     4     2     2
 1.3491754000e-03     1     4     2     3
 3.5400000000e-08     1     4     2     5
 1.0788092000e-03     1     4     3     1
-4.2327522000e-03     1     4     3     2
 3.7987953000e-03     1     4     3     3
-3.1000000000e-08     1     4     3     5
-8.7223139000e-02     1     4     4     1
 8.4477821900e-02     1     4     4     2
 6.1910741100e-02     1     4     4     3
 1.3802200000e-05     1     4     4     5
-9.8012000000e-06     1     4     5     1
 7.0734000000e-06     1     4     5     2
 1.9864000000e-06     1     4     5     3
 5.6768649000e-03     1     4     5     5
 7.0804000000e-06     1     5     2     1
-2.3756200000e-05     1     5     2     2
-3.3296000000e-06     1     5     2     3
-3.5400000000e-08     1     5     2     4
-2.3940000000e-06     1     5     3     1
 9.9448000000e-06     1     5     3     2
-9.2829000000e-06     1     5     3     3
 3.1000000000e-08     1     5     3     4
-9.8012000000e-06     1     5     4     1
 7.0380000000e-06     1     5     4     2
 2.0174000000e-06     1     5     4     3
-1.3802200000e-05     1     5     4     4
-9.3091487200e-02     1     5     5     1
 8.7769628000e-02     1     5     5     2
 6.3549049300e-02     1     5     5     3
-5.6768649000e-03     1     5     5     4
 6.9095908800e-02     2     1     1     2
-3.6087573900e-02     2     1     1     3
-2.9343606000e-03     2     1     1     4
 7.0804000000e-06     2     1     1     5
-2.0214467800e-02     2     1     3     2
-6.4616562000e-02     2     1     3     3
 5.5819276000e-03     2     1     3     4
-1.3274400000e-05     2     1     3     5
-9.7894325000e-03     2     1     4     2
 4.2327522000e-03     2     1     4     3
-8.4477821900e-02     2     1     4     4
-7.0734000000e-06     2     1     4     5
 2.3756200000e-05     2     1     5     2
-9.9448000000e-06     2     1     5     3
-7.0380000000e-06     2     1     5     4
-8.7769628000e-02     2     1     5     5
-6.9095908800e-02     2     2     1     1
 2.0214467800e-02     2     2     1     3
 9.7894325000e-03     2     2     1     4
-2.3756200000e-05     2     2     1     5
 2.0214467800e-02     2     2     3     1
-4.6464535200e-02     2     2     3     3
-1.0637240000e-04     2     2     3     4
 1.9370000000e-07     2     2     3     5
 9.7894325000e-03     2     2     4     1
-1.0637240000e-04     2     2     4     3
-1.5365997200e-02     2     2     4     4
-5.2525000000e-06     2     2     4     5
-2.3756200000e-05     2     2     5     1
 1.9370000000e-07     2     2     5     3
-5.2525000000e-06     2     2     5     4
-1.6780140400e-02     2     2     5     5
 3.6087573900e-02     2     3     1     1
-2.0214467800e-02     2     3     1     2
 1.3491754000e-03     2     3     1     4
-3.3296000000e-06     2     3     1     5
 6.4616562000e-02     2     3     3     1
 4.6464535200e-02     2     3     3     2
-8.1695536000e-03     2     3     3     4
 1.9630100000e-05     2     3     3     5
-4.2327522000e-03     2     3     4     1
 1.0637240000e-04     2     3     4     2
 7.1978435800e-02     2     3     4     4
 6.7739000000e-06     2     3     4     5
 9.9448000000e-06     2     3     5     1
-1.9370000000e-07     2     3     5     2
 6.7700000000e-06     2     3     5     4
 7.5058815600e-02     2     3     5     5
 2.9343606000e-03     2     4     1     1
-9.7894325000e-03     2     4     1     2
-1.3491754000e-03     2     4     1     3
-3.5400000000e-08     2     4     1     5
-5.5819276000e-03     2     4     3     1
 1.0637240000e-04     2     4     3     2
 8.1695536000e-03     2     4     3     3
 3.9000000000e-09     2     4     3     5
 8.4477821900e-02     2     4     4     1
 1.5365997200e-02     2     4     4     2
-7.1978435800e-02     2     4     4     3
 1.5171400000e-05     2     4     4     5
 7.0380000000e-06     2     4     5     1
 5.2525000000e-06     2     4     5     2
-6.7700000000e-06     2     4     5     3
 6.0689885000e-03     2     4     5     5
-7.0804000000e-06     2     5     1     1
 2.3756200000e-05     2     5     1     2
 3.3296000000e-06     2     5     1     3
 3.5400000000e-08     2     5     1     4
 1.3274400000e-05     2     5     3     1
-1.9370000000e-07     2     5     3     2
-1.9630100000e-05     2     5     3     3
-3.9000000000e-09     2     5     3     4
 7.0734000000e-06     2     5     4     1
 5.2525000000e-06     2     5     4     2
-6.7739000000e-06     2     5     4     3
-1.5171400000e-05     2     5     4     4
 8.7769628000e-02     2     5     5     1
 1.6780140400e-02     2     5     5     2
-7.5058815600e-02     2     5     5     3
-6.0689885000e-03     2     5     5     4
-3.6087573900e-02     3     1     1     2
-6.7133933800e-02     3     1     1     3
 1.0788092000e-03     3     1     1     4
-2.3940000000e-06     3     1     1     5
 2.0214467800e-02     3     1     2     2
 6.4616562000e-02     3     1     2     3
-5.5819276000e-03     3     1     2     4
 1.3274400000e-05     3     1     2     5
-1.3491754000e-03     3     1     4     2
-3.7987953000e-03     3     1     4     3
-6.1910741100e-02     3     1     4     4
-1.9864000000e-06     3     1     4     5
 3.3296000000e-06     3     1     5     2
 9.2829000000e-06     3     1     5     3
-2.0174000000e-06     3     1     5     4
-6.3549049300e-02     3     1     5     5
 3.6087573900e-02     3     2     1     1
 6.4616562000e-02     3     2     1     3
-4.2327522000e-03     3     2     1     4
 9.9448000000e-06     3     2     1     5
-2.0214467800e-02     3     2     2     1
 4.6464535200e-02     3     2     2     3
 1.0637240000e-04     3     2     2     4
-1.9370000000e-07     3     2     2     5
 1.3491754000e-03     3     2     4     1
-8.1695536000e-03     3     2     4     3
 7.1978435800e-02     3     2     4     4
 6.7700000000e-06     3     2     4     5
-3.3296000000e-06     3     2     5     1
 1.9630100000e-05     3     2     5     3
 6.7739000000e-06     3     2     5     4
 7.5058815600e-02     3     2     5     5
 6.7133933800e-02     3     3     1     1
-6.4616562000e-02     3     3     1     2
 3.7987953000e-03     3     3     1     4
-9.2829000000e-06     3     3     1     5
-6.4616562000e-02     3     3     2     1
-4.6464535200e-02     3     3     2     2
 8.1695536000e-03     3     3     2     4
-1.9630100000e-05     3     3     2     5
 3.7987953000e-03     3     3     4     1
 8.1695536000e-03     3     3     4     2
 1.0859442960e-01     3     3     4     4
 1.0426400000e-05     3     3     4     5
-9.2829000000e-06     3     3     5     1
-1.9630100000e-05     3     3     5     2
 1.0426400000e-05     3     3     5     4
 1.1512086270e-01     3     3     5     5
-1.0788092000e-03     3     4     1     1
 4.2327522000e-03     3     4     1     2
-3.7987953000e-03     3     4     1     3
 3.1000000000e-08     3     4     1     5
 5.5819276000e-03     3     4     2     1
-1.0637240000e-04     3     4     2     2
-8.1695536000e-03     3     4     2     3
-3.9000000000e-09     3     4     2     5
 6.1910741100e-02     3     4     4     1
-7.1978435800e-02     3     4     4     2
-1.0859442960e-01     3     4     4     3
-7.8378000000e-06     3     4     4     5
 2.0174000000e-06     3     4     5     1
-6.7739000000e-06     3     4     5     2
-1.0426400000e-05     3     4     5     3
-3.2701822000e-03     3     4     5     5
 2.3940000000e-06     3     5     1     1
-9.9448000000e-06     3     5     1     2
 9.2829000000e-06     3     5     1     3
-3.1000000000e-08     3     5     1     4
-1.3274400000e-05     3     5     2     1
 1.9370000000e-07     3     5     2     2
 1.9630100000e-05     3     5     2     3
 3.9000000000e-09     3     5     2     4
 1.9864000000e-06     3     5     4     1
-6.7700000000e-06     3     5     4     2
-1.0426400000e-05     3     5     4     3
 7.8378000000e-06     3     5     4     4
 6.3549049300e-02     3     5     5     1
-7.5058815600e-02     3     5     5     2
-1.1512086270e-01     3     5     5     3
 3.2701822000e-03     3     5     5     4
-2.9343606000e-03     4     1     1     2
 1.0788092000e-03     4     1     1     3
-8.7223139000e-02     4     1     1     4
-9.8012000000e-06     4     1     1     5
 9.7894325000e-03     4     1     2     2
-4.2327522000e-03     4     1     2     3
 8.4477821900e-02     4     1     2     4
 7.0734000000e-06     4     1     2     5
 1.3491754000e-03     4     1     3     2
 3.7987953000e-03     4     1     3     3
 6.1910741100e-02     4     1     3     4
 1.9864000000e-06     4     1     3     5
 3.5400000000e-08     4     1     5     2
-3.1000000000e-08     4     1     5     3
 1.3802200000e-05     4     1     5     4
 5.6768649000e-03     4     1     5     5
 2.9343606000e-03     4     2     1     1
-5.5819276000e-03     4     2     1     3
 8.4477821900e-02     4     2     1     4
 7.0380000000e-06     4     2     1     5
-9.7894325000e-03     4     2     2     1
 1.0637240000e-04     4     2     2     3
 1.5365997200e-02     4     2     2     4
 5.2525000000e-06     4     2     2     5
-1.3491754000e-03     4     2     3     1
 8.1695536000e-03     4     2     3     3
-7.1978435800e-02     4     2     3     4
-6.7700000000e-06     4     2     3     5
-3.5400000000e-08     4     2     5     1
 3.9000000000e-09     4     2     5     3
 1.5171400000e-05     4     2     5     4
 6.0689885000e-03     4     2     5     5
-1.0788092000e-03     4     3     1     1
 5.5819276000e-03     4     3     1     2
 6.1910741100e-02     4     3     1     4
 2.0174000000e-06     4     3     1     5
 4.2327522000e-03     4     3     2     1
-1.0637240000e-04     4     3     2     2
-7.1978435800e-02     4     3     2     4
-6.7739000000e-06     4     3     2     5
-3.7987953000e-03     4     3     3     1
-8.1695536000e-03     4     3     3     2
-1.0859442960e-01     4     3     3     4
-1.0426400000e-05     4     3     3     5
 3.1000000000e-08     4     3     5     1
-3.9000000000e-09     4     3     5     2
-7.8378000000e-06     4     3     5     4
-3.2701822000e-03     4     3     5     5
 8.7223139000e-02     4     4     1     1
-8.4477821900e-02     4     4     1     2
-6.1910741100e-02     4     4     1     3
-1.3802200000e-05     4     4     1     5
-8.4477821900e-02     4     4     2     1
-1.5365997200e-02     4     4     2     2
 7.1978435800e-02     4     4     2     3
-1.5171400000e-05     4     4     2     5
-6.1910741100e-02     4     4     3     1
 7.1978435800e-02     4     4     3     2
 1.0859442960e-01     4     4     3     3
 7.8378000000e-06     4     4     3     5
-1.3802200000e-05     4     4     5     1
-1.5171400000e-05     4     4     5     2
 7.8378000000e-06     4     4     5     3
 1.3536432690e-01     4     4     5     5
 9.8012000000e-06     4     5     1     1
-7.0380000000e-06     4     5     1     2
-2.0174000000e-06     4     5     1     3
 1.3802200000e-05     4     5     1     4
-7.0734000000e-06     4     5     2     1
-5.2525000000e-06     4     5     2     2
 6.7739000000e-06     4     5     2     3
 1.5171400000e-05     4     5     2     4