&FCI NORB=  5,NELEC=  2,MS2=0,
 ORBSYM=1,1,1,1,1
 ISYM=1,
&END
 1.0057030960e-01     1     1     2     2
 9.7787920000e-03     1     1     2     3
-2.2909300000e-04     1     1     2     4
 1.2459290000e-04     1     1     2     5
 9.7787920000e-03     1     1     3     2
 1.3404520850e-01     1     1     3     3
-7.1513200000e-05     1     1     3     4
 3.8866200000e-05     1     1     3     5
-2.2909300000e-04     1     1     4     2
-7.1513200000e-05     1     1     4     3
 1.3090383320e-01     1     1     4     4
-9.5720000000e-07     1     1     4     5
 1.2459290000e-04     1     1     5     2
 3.8866200000e-05     1     1     5     3
-9.5720000000e-07     1     1     5     4
 1.3090168420e-01     1     1     5     5
-1.0057030960e-01     1     2     2     1
-4.0741760500e-02     1     2     2     3
 9.6885440000e-04     1     2     2     4
-5.2644710000e-04     1     2     2     5
-9.7787920000e-03     1     2     3     1
-8.2963756500e-02     1     2     3     3
 6.4348800000e-05     1     2     3     4
-3.4951700000e-05     1     2     3     5
 2.2909300000e-04     1     2     4     1
 6.2425700000e-05     1     2     4     3
-8.0439065200e-02     1     2     4     4
 9.8580000000e-07     1     2     4     5
-1.2459290000e-04     1     2     5     1
-3.3917600000e-05     1     2     5     3
 7.4590000000e-07     1     2     5     4
-8.0437461800e-02     1     2     5     5
-9.7787920000e-03     1     3     2     1
 4.0741760500e-02     1     3     2     2
 1.9231000000e-06     1     3     2     4
-1.0341000000e-06     1     3     2     5
-1.3404520850e-01     1     3     3     1
 8.2963756500e-02     1     3     3     2
 1.0044129000e-03     1     3     3     4
-5.4566800000e-04     1     3     3     5
 7.1513200000e-05     1     3     4     1
-6.2425700000e-05     1     3     4     2
 4.2153103800e-02     1     3     4     4
-3.5900000000e-08     1     3     4     5
-3.8866200000e-05     1     3     5     1
 3.3917600000e-05     1     3     5     2
 8.5200000000e-08     1     3     5     4
 4.2152957500e-02     1     3     5     5
 2.2909300000e-04     1     4     2     1
-9.6885440000e-04     1     4     2     2
-1.9231000000e-06     1     4     2     3
 2.3990000000e-07     1     4     2     5
 7.1513200000e-05     1     4     3     1
-6.4348800000e-05     1     4     3     2
-1.0044129000e-03     1     4     3     3
-1.2110000000e-07     1     4     3     5
-1.3090383320e-01     1     4     4     1
 8.0439065200e-02     1     4     4     2
-4.2153103800e-02     1     4     4     3
-5.4285300000e-04     1     4     4     5
 9.5720000000e-07     1     4     5     1
-7.4590000000e-07     1     4     5     2
-8.5200000000e-08     1     4     5     3
-9.9921400000e-04     1     4     5     5
-1.2459290000e-04     1     5     2     1
 5.2644710000e-04     1     5     2     2
 1.0341000000e-06     1     5     2     3
-2.3990000000e-07     1     5     2     4
-3.8866200000e-05     1     5     3     1
 3.4951700000e-05     1     5     3     2
 5.4566800000e-04     1     5     3     3
 1.2110000000e-07     1     5     3     4
 9.5720000000e-07     1     5     4     1
-9.8580000000e-07     1     5     4     2
 3.5900000000e-08     1     5     4     3
 5.4285300000e-04     1     5     4     4
-1.3090168420e-01     1     5     5     1
 8.0437461800e-02     1     5     5     2
-4.2152957500e-02     1     5     5     3
 9.9921400000e-04     1     5     5     4
-1.0057030960e-01     2     1     1     2
-9.7787920000e-03     2     1     1     3
 2.2909300000e-04     2     1     1     4
-1.2459290000e-04     2     1     1     5
-4.0741760500e-02     2     1     3     2
-8.2963756500e-02     2     1     3     3
 6.2425700000e-05     2     1     3     4
-3.3917600000e-05     2     1     3     5
 9.6885440000e-04     2     1     4     2
 6.4348800000e-05     2     1     4     3
-8.0439065200e-02     2     1     4     4
 7.4590000000e-07     2     1     4     5
-5.2644710000e-04     2     1     5     2
-3.4951700000e-05     2     1     5     3
 9.8580000000e-07     2     1     5     4
-8.0437461800e-02     2     1     5     5
 1.0057030960e-01     2     2     1     1
 4.0741760500e-02     2     2     1     3
-9.6885440000e-04     2     2     1     4
 5.2644710000e-04     2     2     1     5
 4.0741760500e-02     2     2     3     1
 1.4991966690e-01     2     2     3     3
-1.2932290000e-04     2     2     3     4
 7.0280500000e-05     2     2     3     5
-9.6885440000e-04     2     2     4     1
-1.2932290000e-04     2     2     4     3
 1.4431679850e-01     2     2     4     4
-1.7117000000e-06     2     2     4     5
 5.2644710000e-04     2     2     5     1
 7.0280500000e-05     2     2     5     3
-1.7117000000e-06     2     2     5     4
 1.4431358450e-01     2     2     5     5
 9.7787920000e-03     2     3     1     1
-4.0741760500e-02     2     3     1     2
-1.9231000000e-06     2     3     1     4
 1.0341000000e-06     2     3     1     5
 8.2963756500e-02     2     3     3     1
-1.4991966690e-01     2     3     3     2
 1.5658330000e-04     2     3     3     4
-8.5226900000e-05     2     3     3     5
-6.4348800000e-05     2     3     4     1
 1.2932290000e-04     2     3     4     2
 6.7992313000e-03     2     3     4     4
-1.9900000000e-08     2     3     4     5
 3.4951700000e-05     2     3     5     1
-7.0280500000e-05     2     3     5     2
 6.4000000000e-09     2     3     5     4
 6.7992820000e-03     2     3     5     5
-2.2909300000e-04     2     4     1     1
 9.6885440000e-04     2     4     1     2
 1.9231000000e-06     2     4     1     3
-2.3990000000e-07     2     4     1     5
-6.2425700000e-05     2     4     3     1
 1.2932290000e-04     2     4     3     2
-1.5658330000e-04     2     4     3     3
-2.6300000000e-08     2     4     3     5
 8.0439065200e-02     2     4     4     1
-1.4431679850e-01     2     4     4     2
-6.7992313000e-03     2     4     4     3
-8.6034200000e-05     2     4     4     5
-9.8580000000e-07     2     4     5     1
 1.7117000000e-06     2     4     5     2
-6.4000000000e-09     2     4     5     3
-1.5809340000e-04     2     4     5     5
 1.2459290000e-04     2     5     1     1
-5.2644710000e-04     2     5     1     2
-1.0341000000e-06     2     5     1     3
 2.3990000000e-07     2     5     1     4
 3.3917600000e-05     2     5     3     1
-7.0280500000e-05     2     5     3     2
 8.5226900000e-05     2     5     3     3
 2.6300000000e-08     2     5     3     4
-7.4590000000e-07     2     5     4     1
 1.7117000000e-06     2     5     4     2
 1.9900000000e-08     2     5     4     3
 8.6034200000e-05     2     5     4     4
 8.0437461800e-02     2     5     5     1
-1.4431358450e-01     2     5     5     2
-6.7992820000e-03     2     5     5     3
 1.5809340000e-04     2     5     5     4
-9.7787920000e-03     3     1     1     2
-1.3404520850e-01     3     1     1     3
 7.1513200000e-05     3     1     1     4
-3.8866200000e-05     3     1     1     5
 4.0741760500e-02     3     1     2     2
 8.2963756500e-02     3     1     2     3
-6.2425700000e-05     3     1     2     4
 3.3917600000e-05     3     1     2     5
 1.9231000000e-06     3     1     4     2
 1.0044129000e-03     3     1     4     3
 4.2153103800e-02     3     1     4     4
 8.5200000000e-08     3     1     4     5
-1.0341000000e-06     3     1     5     2
-5.4566800000e-04     3     1     5     3
-3.5900000000e-08     3     1     5     4
 4.2152957500e-02     3     1     5     5
 9.7787920000e-03     3     2     1     1
 8.2963756500e-02     3     2     1     3
-6.4348800000e-05     3     2     1     4
 3.4951700000e-05     3     2     1     5
-4.0741760500e-02     3     2     2     1
-1.4991966690e-01     3     2     2     3
 1.2932290000e-04     3     2     2     4
-7.0280500000e-05     3     2     2     5
-1.9231000000e-06     3     2     4     1
 1.5658330000e-04     3     2     4     3
 6.7992313000e-03     3     2     4     4
 6.4000000000e-09     3     2     4     5
 1.0341000000e-06     3     2     5     1
-8.5226900000e-05     3     2     5     3
-1.9900000000e-08     3     2     5     4
 6.7992820000e-03     3     2     5     5
 1.3404520850e-01     3     3     1     1
-8.2963756500e-02     3     3     1     2
-1.0044129000e-03     3     3     1     4
 5.4566800000e-04     3     3     1     5
-8.2963756500e-02     3     3     2     1
 1.4991966690e-01     3     3     2     2
-1.5658330000e-04     3     3     2     4
 8.5226900000e-05     3     3     2     5
-1.0044129000e-03     3     3     4     1
-1.5658330000e-04     3     3     4     2
 1.5815222720e-01     3     3     4     4
-1.3397000000e-06     3     3     4     5
 5.4566800000e-04     3     3     5     1
 8.5226900000e-05     3     3     5     2
-1.3397000000e-06     3     3     5     4
 1.5814957610e-01     3     3     5     5
-7.1513200000e-05     3     4     1     1
 6.4348800000e-05     3     4     1     2
 1.0044129000e-03     3     4     1     3
 1.2110000000e-07     3     4     1     5
 6.2425700000e-05     3     4     2     1
-1.2932290000e-04     3     4     2     2
 1.5658330000e-04     3     4     2     3
 2.6300000000e-08     3     4     2     5
-4.2153103800e-02     3     4     4     1
-6.7992313000e-03     3     4     4     2
-1.5815222720e-01     3     4     4     3
-5.4350200000e-05     3     4     4     5
 3.5900000000e-08     3     4     5     1
 1.9900000000e-08     3     4     5     2
 1.3397000000e-06     3     4     5     3
-9.9749100000e-05     3     4     5     5
 3.8866200000e-05     3     5     1     1
-3.4951700000e-05     3     5     1     2
-5.4566800000e-04     3     5     1     3
-1.2110000000e-07     3     5     1     4
-3.3917600000e-05     3     5     2     1
 7.0280500000e-05     3     5     2     2
-8.5226900000e-05     3     5     2     3
-2.6300000000e-08     3     5     2     4
-8.5200000000e-08     3     5     4     1
-6.4000000000e-09     3     5     4     2
 1.3397000000e-06     3     5     4     3
 5.4350200000e-05     3     5     4     4
-4.2152957500e-02     3     5     5     1
-6.7992820000e-03     3     5     5     2
-1.5814957610e-01     3     5     5     3
 9.9749100000e-05     3     5     5     4
 2.2909300000e-04     4     1     1     2
 7.1513200000e-05     4     1     1     3
-1.3090383320e-01     4     1     1     4
 9.5720000000e-07     4     1     1     5
-9.6885440000e-04     4     1     2     2
-6.4348800000e-05     4     1     2     3
 8.0439065200e-02     4     1     2     4
-7.4590000000e-07     4     1     2     5
-1.9231000000e-06     4     1     3     2
-1.0044129000e-03     4     1     3     3
-4.2153103800e-02     4     1     3     4
-8.5200000000e-08     4     1     3     5
 2.3990000000e-07     4     1     5     2
-1.2110000000e-07     4     1     5     3
-5.4285300000e-04     4     1     5     4
-9.9921400000e-04     4     1     5     5
-2.2909300000e-04     4     2     1     1
-6.2425700000e-05     4     2     1     3
 8.0439065200e-02     4     2     1     4
-9.8580000000e-07     4     2     1     5
 9.6885440000e-04     4     2     2     1
 1.2932290000e-04     4     2     2     3
-1.4431679850e-01     4     2     2     4
 1.7117000000e-06     4     2     2     5
 1.9231000000e-06     4     2     3     1
-1.5658330000e-04     4     2     3     3
-6.7992313000e-03     4     2     3     4
-6.4000000000e-09     4     2     3     5
-2.3990000000e-07     4     2     5     1
-2.6300000000e-08     4     2     5     3
-8.6034200000e-05     4     2     5     4
-1.5809340000e-04     4     2     5     5
-7.1513200000e-05     4     3     1     1
 6.2425700000e-05     4     3     1     2
-4.2153103800e-02     4     3     1     4
 3.5900000000e-08     4     3     1     5
 6.4348800000e-05     4     3     2     1
-1.2932290000e-04     4     3     2     2
-6.7992313000e-03     4     3     2     4
 1.9900000000e-08     4     3     2     5
 1.0044129000e-03     4     3     3     1
 1.5658330000e-04     4     3     3     2
-1.5815222720e-01     4     3     3     4
 1.3397000000e-06     4     3     3     5
 1.2110000000e-07     4     3     5     1
 2.6300000000e-08     4     3     5     2
-5.4350200000e-05     4     3     5     4
-9.9749100000e-05     4     3     5     5
 1.3090383320e-01     4     4     1     1
-8.0439065200e-02     4     4     1     2
 4.2153103800e-02     4     4     1     3
 5.4285300000e-04     4     4     1     5
-8.0439065200e-02     4     4     2     1
 1.4431679850e-01     4     4     2     2
 6.7992313000e-03     4     4     2     3
 8.6034200000e-05     4     4     2     5
 4.2153103800e-02     4     4     3     1
 6.7992313000e-03     4     4     3     2
 1.5815222720e-01     4     4     3     3
 5.4350200000e-05     4     4     3     5
 5.4285300000e-04     4     4     5     1
 8.6034200000e-05     4     4     5     2
 5.4350200000e-05     4     4     5     3
 1.5378214490e-01     4     4     5     5
-9.5720000000e-07     4     5     1     1
 9.8580000000e-07     4     5     1     2
-3.5900000000e-08     4     5     1     3
-5.4285300000e-04     4     5     1     4
 7.4590000000e-07     4     5     2     1
-1.7117000000e-06     4     5     2     2
-1.9900000000e-08     4     5     2     3
-8.6034200000e-05     4     5     2     4
 8.5200000000e-08     4     5     3     1
 6.4000000000e-09     4     5     3     2
-1.3397000000e-06     4     5     3     3
-5.4350200000e-05     4     5     3     4
 9.9921400000e-04     4     5     5     1
 1.5809340000e-04     4     5     5     2
 9.9749100000e-05     4     5     5     3
-1.5378214490e-01     4     5     5     4
-1.2459290000e-04     5     1     1     2
-3.8866200000e-05     5     1     1     3
 9.5720000000e-07     5     1     1     4
-1.3090168420e-01     5     1     1     5
 5.2644710000e-04     5     1     2     2
 3.4951700000e-05     5     1     2     3
-9.8580000000e-07     5     1     2     4
 8.0437461800e-02     5     1     2     5
 1.0341000000e-06     5     1     3     2
 5.4566800000e-04     5     1     3     3
 3.5900000000e-08     5     1     3     4
-4.2152957500e-02     5     1     3     5
-2.3990000000e-07     5     1     4     2
 1.2110000000e-07     5     1     4     3
 5.4285300000e-04     5     1     4     4
 9.9921400000e-04     5     1     4     5
 1.2459290000e-04     5     2     1     1
 3.3917600000e-05     5     2     1     3
-7.4590000000e-07     5     2     1     4
 8.0437461800e-02     5     2     1     5
-5.2644710000e-04     5     2     2     1
-7.0280500000e-05     5     2     2     3
 1.7117000000e-06     5     2     2     4
-1.4431358450e-01     5     2     2     5
-1.0341000000e-06     5     2     3     1
 8.5226900000e-05     5     2     3     3
 1.9900000000e-08     5     2     3     4
-6.7992820000e-03     5     2     3     5
 2.3990000000e-07     5     2     4     1
 2.6300000000e-08     5     2     4     3
 8.6034200000e-05     5     2     4     4
 1.5809340000e-04     5     2     4     5
 3.8866200000e-05     5     3     1     1
-3.3917600000e-05     5     3     1     2
-8.5200000000e-08     5     3     1     4
-4.2152957500e-02     5     3     1     5
-3.4951700000e-05     5     3     2     1
 7.0280500000e-05     5     3     2     2
-6.4000000000e-09     5     3     2     4
-6.7992820000e-03     5     3     2     5
-5.4566800000e-04     5     3     3     1
-8.5226900000e-05     5     3     3     2
 1.3397000000e-06     5     3     3     4
-1.5814957610e-01     5     3     3     5
-1.2110000000e-07     5     3     4     1
-2.6300000000e-08     5     3     4     2
 5.4350200000e-05     5     3     4     4
 9.9749100000e-05     5     3     4     5
-9.5720000000e-07     5     4     1     1
 7.4590000000e-07     5     4     1     2
 8.5200000000e-08     5     4     1     3
 9.9921400000e-04     5     4     1     5
 9.8580000000e-07     5     4     2     1
-1.7117000000e-06     5     4     2     2
 6.4000000000e-09     5     4     2     3
 1.5809340000e-04     5     4     2     5
-3.5900000000e-08     5     4     3     1
-1.9900000000e-08     5     4     3     2
-1.3397000000e-06     5     4     3     3
 9.9749100000e-05     5     4     3     5
-5.4285300000e-04     5     4     4     1
-8.6034200000e-05     5     4     4     2
-5.4350200000e-05     5     4     4     3
-1.5378214490e-01     5     4     4     5
 1.3090168420e-01     5     5     1     1
-8.0437461800e-02     5     5     1     2
 4.2152957500e-02     5     5     1     3
-9.9921400000e-04     5     5     1     4
-8.0437461800e-02     5     5     2     1
 1.4431358450e-01     5     5     2     2
 6.7992820000e-03     5     5     2     3
-1.5809340000e-04     5     5     2     4
 4.2152957500e-02     5     5     3     1
 6.7992820000e-03     5     5     3     2
 1.5814957610e-01     5     5     3     3
-9.9749100000e-05     5     5     3     4
-9.9921400000e-04     5     5     4     1
-1.5809340000e-04     5     5     4     2
-9.9749100000e-05     5     5     4     3
 1.5378214490e-01     5     5     4     4
0.0 0 0 0 0
 1.0057030960e-01     1     1     2     2
 9.7787920000e-03     1     1     2     3
-2.2909300000e-04     1     1     2     4
 1.2459290000e-04     1     1     2     5
 9.7787920000e-03     1     1     3     2
 1.3404520850e-01     1     1     3     3
-7.1513200000e-05     1     1     3     4
 3.8866200000e-05     1     1     3     5
-2.2909300000e-04     1     1     4     2
-7.1513200000e-05     1     1     4     3
 1.3090383320e-01     1     1     4     4
-9.5720000000e-07     1     1     4     5
 1.2459290000e-04     1     1     5     2
 3.8866200000e-05     1     1     5     3
-9.5720000000e-07     1     1     5     4
 1.3090168420e-01     1     1     5     5
-1.0057030960e-01     1     2     2     1
-4.0741760500e-02     1     2     2     3
 9.6885440000e-04     1     2     2     4
-5.2644710000e-04     1     2     2     5
-9.7787920000e-03     1     2     3     1
-8.2963756500e-02     1     2     3     3
 6.4348800000e-05     1     2     3     4
-3.4951700000e-05     1     2     3     5
 2.2909300000e-04     1     2     4     1
 6.2425700000e-05     1     2     4     3
-8.0439065200e-02     1     2     4     4
 9.8580000000e-07     1     2     4     5
-1.2459290000e-04     1     2     5     1
-3.3917600000e-05     1     2     5     3
 7.4590000000e-07     1     2     5     4
-8.0437461800e-02     1     2     5     5
-9.7787920000e-03     1     3     2     1
 4.0741760500e-02     1     3     2     2
 1.9231000000e-06     1     3     2     4
-1.0341000000e-06     1     3     2     5
-1.3404520850e-01     1     3     3     1
 8.2963756500e-02     1     3     3     2
 1.0044129000e-03     1     3     3     4
-5.4566800000e-04     1     3     3     5
 7.1513200000e-05     1     3     4     1
-6.2425700000e-05     1     3     4     2
 4.2153103800e-02     1     3     4     4
-3.5900000000e-08     1     3     4     5
-3.8866200000e-05     1     3     5     1
 3.3917600000e-05     1     3     5     2
 8.5200000000e-08     1     3     5     4
 4.2152957500e-02     1     3     5     5
 2.2909300000e-04     1     4     2     1
-9.6885440000e-04     1     4     2     2
-1.9231000000e-06     1     4     2     3
 2.3990000000e-07     1     4     2     5
 7.1513200000e-05     1     4     3     1
-6.4348800000e-05     1     4     3     2
-1.0044129000e-03     1     4     3     3
-1.2110000000e-07     1     4     3     5
-1.3090383320e-01     1     4     4     1
 8.0439065200e-02     1     4     4     2
-4.2153103800e-02     1     4     4     3
-5.4285300000e-04     1     4     4     5
 9.5720000000e-07     1     4     5     1
-7.4590000000e-07     1     4     5     2
-8.5200000000e-08     1     4     5     3
-9.9921400000e-04     1     4     5     5
-1.2459290000e-04     1     5     2     1
 5.2644710000e-04     1     5     2     2
 1.0341000000e-06     1     5     2     3
-2.3990000000e-07     1     5     2     4
-3.8866200000e-05     1     5     3     1
 3.4951700000e-05     1     5     3     2
 5.4566800000e-04     1     5     3     3
 1.2110000000e-07     1     5     3     4
 9.5720000000e-07     1     5     4     1
-9.8580000000e-07     1     5     4     2
 3.5900000000e-08     1     5     4     3
 5.4285300000e-04     1     5     4     4
-1.3090168420e-01     1     5     5     1
 8.0437461800e-02     1     5     5     2
-4.2152957500e-02     1     5     5     3
 9.9921400000e-04     1     5     5     4
-1.0057030960e-01     2     1     1     2
-9.7787920000e-03     2     1     1     3
 2.2909300000e-04     2     1     1     4
-1.2459290000e-04     2     1     1     5
-4.0741760500e-02     2     1     3     2
-8.2963756500e-02     2     1     3     3
 6.2425700000e-05     2     1     3     4
-3.3917600000e-05     2     1     3     5
 9.6885440000e-04     2     1     4     2
 6.4348800000e-05     2     1     4     3
-8.0439065200e-02     2     1     4     4
 7.4590000000e-07     2     1     4     5
-5.2644710000e-04     2     1     5     2
-3.4951700000e-05     2     1     5     3
 9.8580000000e-07     2     1     5     4
-8.0437461800e-02     2     1     5     5
 1.0057030960e-01     2     2     1     1
 4.0741760500e-02     2     2     1     3
-9.6885440000e-04     2     2     1     4
 5.2644710000e-04     2     2     1     5
 4.0741760500e-02     2     2     3     1
 1.4991966690e-01     2     2     3     3
-1.2932290000e-04     2     2     3     4
 7.0280500000e-05     2     2     3     5
-9.6885440000e-04     2     2     4     1
-1.2932290000e-04     2     2     4     3
 1.4431679850e-01     2     2     4     4
-1.7117000000e-06     2     2     4     5
 5.2644710000e-04     2     2     5     1
 7.0280500000e-05     2     2     5     3
-1.7117000000e-06     2     2     5     4
 1.4431358450e-01     2     2     5     5
 9.7787920000e-03     2     3     1     1
-4.0741760500e-02     2     3     1     2
-1.9231000000e-06     2     3     1     4
 1.0341000000e-06     2     3     1     5
 8.2963756500e-02     2     3     3     1
-1.4991966690e-01     2     3     3     2
 1.5658330000e-04     2     3     3     4
-8.5226900000e-05     2     3     3     5
-6.4348800000e-05     2     3     4     1
 1.2932290000e-04     2     3     4     2
 6.7992313000e-03     2     3     4     4
-1.9900000000e-08     2     3     4     5
 3.4951700000e-05     2     3     5     1
-7.0280500000e-05     2     3     5     2
 6.4000000000e-09     2     3     5     4
 6.7992820000e-03     2     3     5     5
-2.2909300000e-04     2     4     1     1
 9.6885440000e-04     2     4     1     2
 1.9231000000e-06     2     4     1     3
-2.3990000000e-07     2     4     1     5
-6.2425700000e-05     2     4     3     1
 1.2932290000e-04     2     4     3     2
-1.5658330000e-04     2     4     3     3
-2.6300000000e-08     2     4     3     5
 8.0439065200e-02     2     4     4     1
-1.4431679850e-01     2     4     4     2
-6.7992313000e-03     2     4     4     3
-8.6034200000e-05     2     4     4     5
-9.8580000000e-07     2     4     5     1
 1.7117000000e-06     2     4     5     2
-6.4000000000e-09     2     4     5     3
-1.5809340000e-04     2     4     5     5
 1.2459290000e-04     2     5     1     1
-5.2644710000e-04     2     5     1     2
-1.0341000000e-06     2     5     1     3
 2.3990000000e-07     2     5     1     4
 3.3917600000e-05     2     5     3     1
-7.0280500000e-05     2     5     3     2
 8.5226900000e-05     2     5     3     3
 2.6300000000e-08     2     5     3     4
-7.4590000000e-07     2     5     4     1
 1.7117000000e-06     2     5     4     2
 1.9900000000e-08     2     5     4     3
 8.6034200000e-05     2     5     4     4
 8.0437461800e-02     2     5     5     1
-1.4431358450e-01     2     5     5     2
-6.7992820000e-03     2     5     5     3
 1.5809340000e-04     2     5     5     4
-9.7787920000e-03     3     1     1     2
-1.3404520850e-01     3     1     1     3
 7.1513200000e-05     3     1     1     4
-3.8866200000e-05     3     1     1     5
 4.0741760500e-02     3     1     2     2
 8.2963756500e-02     3     1     2     3
-6.2425700000e-05     3     1     2     4
 3.3917600000e-05     3     1     2     5
 1.9231000000e-06     3     1     4     2
 1.0044129000e-03     3     1     4     3
 4.2153103800e-02     3     1     4     4
 8.5200000000e-08     3     1     4     5
-1.0341000000e-06     3     1     5     2
-5.4566800000e-04     3     1     5     3
-3.5900000000e-08     3     1     5     4
 4.2152957500e-02     3     1     5     5
 9.7787920000e-03     3     2     1     1
 8.2963756500e-02     3     2     1     3
-6.4348800000e-05     3     2     1     4
 3.4951700000e-05     3     2     1     5
-4.0741760500e-02     3     2     2     1
-1.4991966690e-01     3     2     2     3
 1.2932290000e-04     3     2     2     4
-7.0280500000e-05     3     2     2     5
-1.9231000000e-06     3     2     4     1
 1.5658330000e-04     3     2     4     3
 6.7992313000e-03     3     2     4     4
 6.4000000000e-09     3     2     4     5
 1.0341000000e-06     3     2     5     1
-8.5226900000e-05     3     2     5     3
-1.9900000000e-08     3     2     5     4
 6.7992820000e-03     3     2     5     5
 1.3404520850e-01     3     3     1     1
-8.2963756500e-02     3     3     1     2
-1.0044129000e-03     3     3     1     4
 5.4566800000e-04     3     3     1     5
-8.2963756500e-02     3     3     2     1
 1.4991966690e-01     3     3     2     2
-1.5658330000e-04     3     3     2     4
 8.5226900000e-05     3     3     2     5
-1.0044129000e-03     3     3     4     1
-1.5658330000e-04     3     3     4     2
 1.5815222720e-01     3     3     4     4
-1.3397000000e-06     3     3     4     5
 5.4566800000e-04     3     3     5     1
 8.5226900000e-05     3     3     5     2
-1.3397000000e-06     3     3     5     4
 1.5814957610e-01     3     3     5     5
-7.1513200000e-05     3     4     1     1
 6.4348800000e-05     3     4     1     2
 1.0044129000e-03     3     4     1     3
 1.2110000000e-07     3     4     1     5
 6.2425700000e-05     3     4     2     1
-1.2932290000e-04     3     4     2     2
 1.5658330000e-04     3     4     2     3
 2.6300000000e-08     3     4     2     5
-4.2153103800e-02     3     4     4     1
-6.7992313000e-03     3     4     4     2
-1.5815222720e-01     3     4     4     3
-5.4350200000e-05     3     4     4     5
 3.5900000000e-08     3     4     5     1
 1.9900000000e-08     3     4     5     2
 1.3397000000e-06     3     4     5     3
-9.9749100000e-05     3     4     5     5
 3.8866200000e-05     3     5     1     1
-3.4951700000e-05     3     5     1     2
-5.4566800000e-04     3     5     1     3
-1.2110000000e-07     3     5     1     4
-3.3917600000e-05     3     5     2     1
 7.0280500000e-05     3     5     2     2
-8.5226900000e-05     3     5     2     3
-2.6300000000e-08     3     5     2     4
-8.5200000000e-08     3     5     4     1
-6.4000000000e-09     3     5     4     2
 1.3397000000e-06     3     5     4     3
 5.4350200000e-05     3     5     4     4
-4.2152957500e-02     3     5     5     1
-6.7992820000e-03     3     5     5     2
-1.5814957610e-01     3     5     5     3
 9.9749100000e-05     3     5     5     4
 2.2909300000e-04     4     1     1     2
 7.1513200000e-05     4     1     1     3
-1.3090383320e-01     4     1     1     4
 9.5720000000e-07     4     1     1     5
-9.6885440000e-04     4     1     2     2
-6.4348800000e-05     4     1     2     3
 8.0439065200e-02     4     1     2     4
-7.4590000000e-07     4     1     2     5
-1.9231000000e-06     4     1     3     2
-1.0044129000e-03     4     1     3     3
-4.2153103800e-02     4     1     3     4
-8.5200000000e-08     4     1     3     5
 2.3990000000e-07     4     1     5     2
-1.2110000000e-07     4     1     5     3
-5.4285300000e-04     4     1     5     4
-9.9921400000e-04     4     1     5     5
-2.2909300000e-04     4     2     1     1
-6.2425700000e-05     4     2     1     3
 8.0439065200e-02     4     2     1     4
-9.8580000000e-07     4     2     1     5
 9.6885440000e-04     4     2     2     1
 1.2932290000e-04     4     2     2     3
-1.4431679850e-01     4     2     2     4
 1.7117000000e-06     4     2     2     5
 1.9231000000e-06     4     2     3     1
-1.5658330000e-04     4     2     3     3
-6.7992313000e-03     4     2     3     4
-6.4000000000e-09     4     2     3     5
-2.3990000000e-07     4     2     5     1
-2.6300000000e-08     4     2     5     3
-8.6034200000e-05     4     2     5     4
-1.5809340000e-04     4     2     5     5
-7.1513200000e-05     4     3     1     1
 6.2425700000e-05     4     3     1     2
-4.2153103800e-02     4     3     1     4
 3.5900000000e-08     4     3     1     5
 6.4348800000e-05     4     3     2     1
-1.2932290000e-04     4     3     2     2
-6.7992313000e-03     4     3     2     4
 1.9900000000e-08     4     3     2     5
 1.0044129000e-03     4     3     3     1
 1.5658330000e-04     4     3     3     2
-1.5815222720e-01     4     3     3     4
 1.3397000000e-06     4     3     3     5
 1.2110000000e-07     4     3     5     1
 2.6300000000e-08     4     3     5     2
-5.4350200000e-05     4     3     5     4
-9.9749100000e-05     4     3     5     5
 1.3090383320e-01     4     4     1     1
-8.0439065200e-02     4     4     1     2
 4.2153103800e-02     4     4     1     3
 5.4285300000e-04     4     4     1     5
-8.0439065200e-02     4     4     2     1
 1.4431679850e-01     4     4     2     2
 6.7992313000e-03     4     4     2     3
 8.6034200000e-05     4     4     2     5
 4.2153103800e-02     4     4     3     1
 6.7992313000e-03     4     4     3     2
 1.5815222720e-01     4     4     3     3
 5.4350200000e-05     4     4     3     5
 5.4285300000e-04     4     4     5     1
 8.6034200000e-05     4     4     5     2
 5.4350200000e-05     4     4     5     3
 1.5378214490e-01     4     4     5     5
-9.5720000000e-07     4     5     1     1
 9.8580000000e-07     4     5     1     2
-3.5900000000e-08     4     5     1     3
-5.4285300000e-04     4     5     1     4
 7.4590000000e-07     4     5     2     1
-1.7117000000e-06     4     5     2     2
-1.9900000000e-08     4     5     2     3
-8.6034200000e-05     4     5     2     4