&FCI NORB=  5,NELEC=  2,MS2=0,
 ORBSYM=1,1,1,1,1
 ISYM=1,
&END
-9.6675249000e-03     1     1     2     2
-9.8050590000e-03     1     1     2     3
-5.5169500000e-05     1     1     2     4
-2.3907600000e-05     1     1     2     5
-9.8050590000e-03     1     1     3     2
 8.9394249900e-02     1     1     3     3
-8.1544000000e-06     1     1     3     4
-2.9230000000e-06     1     1     3     5
-5.5169500000e-05     1     1     4     2
-8.1544000000e-06     1     1     4     3
 9.5076822300e-02     1     1     4     4
-3.5300000000e-07     1     1     4     5
-2.3907600000e-05     1     1     5     2
-2.9230000000e-06     1     1     5     3
-3.5300000000e-07     1     1     5     4
 9.5075314200e-02     1     1     5     5
 9.6675249000e-03     1     2     2     1
-1.7271570500e-02     1     2     2     3
-3.8395400000e-05     1     2     2     4
-1.8502900000e-05     1     2     2     5
 9.8050590000e-03     1     2     3     1
-8.4235938800e-02     1     2     3     3
-8.2995000000e-06     1     2     3     4
-4.2090000000e-06     1     2     3     5
 5.5169500000e-05     1     2     4     1
-6.3437000000e-06     1     2     4     3
-8.5034453000e-02     1     2     4     4
 3.3930000000e-07     1     2     4     5
 2.3907600000e-05     1     2     5     1
-3.2084000000e-06     1     2     5     3
 3.4500000000e-08     1     2     5     4
-8.5033629800e-02     1     2     5     5
 9.8050590000e-03     1     3     2     1
 1.7271570500e-02     1     3     2     2
-1.9558000000e-06     1     3     2     4
-1.0006000000e-06     1     3     2     5
-8.9394249900e-02     1     3     3     1
 8.4235938800e-02     1     3     3     2
-1.2766150000e-04     1     3     3     4
-5.7137400000e-05     1     3     3     5
 8.1544000000e-06     1     3     4     1
 6.3437000000e-06     1     3     4     2
 3.7099845900e-02     1     3     4     4
-6.3300000000e-08     1     3     4     5
 2.9230000000e-06     1     3     5     1
 3.2084000000e-06     1     3     5     2
 2.7300000000e-08     1     3     5     4
 3.7099697600e-02     1     3     5     5
 5.5169500000e-05     1     4     2     1
 3.8395400000e-05     1     4     2     2
 1.9558000000e-06     1     4     2     3
 3.0480000000e-07     1     4     2     5
 8.1544000000e-06     1     4     3     1
 8.2995000000e-06     1     4     3     2
 1.2766150000e-04     1     4     3     3
-9.0600000000e-08     1     4     3     5
-9.5076822300e-02     1     4     4     1
 8.5034453000e-02     1     4     4     2
-3.7099845900e-02     1     4     4     3
-5.7867200000e-05     1     4     4     5
 3.5300000000e-07     1     4     5     1
-3.4500000000e-08     1     4     5     2
-2.7300000000e-08     1     4     5     3
 1.2946480000e-04     1     4     5     5
 2.3907600000e-05     1     5     2     1
 1.8502900000e-05     1     5     2     2
 1.0006000000e-06     1     5     2     3
-3.0480000000e-07     1     5     2     4
 2.9230000000e-06     1     5     3     1
 4.2090000000e-06     1     5     3     2
 5.7137400000e-05     1     5     3     3
 9.0600000000e-08     1     5     3     4
 3.5300000000e-07     1     5     4     1
-3.3930000000e-07     1     5     4     2
 6.3300000000e-08     1     5     4     3
 5.7867200000e-05     1     5     4     4
-9.5075314200e-02     1     5     5     1
 8.5033629800e-02     1     5     5     2
-3.7099697600e-02     1     5     5     3
-1.2946480000e-04     1     5     5     4
 9.6675249000e-03     2     1     1     2
 9.8050590000e-03     2     1     1     3
 5.5169500000e-05     2     1     1     4
 2.3907600000e-05     2     1     1     5
-1.7271570500e-02     2     1     3     2
-8.4235938800e-02     2     1     3     3
-6.3437000000e-06     2     1     3     4
-3.2084000000e-06     2     1     3     5
-3.8395400000e-05     2     1     4     2
-8.2995000000e-06     2     1     4     3
-8.5034453000e-02     2     1     4     4
 3.4500000000e-08     2     1     4     5
-1.8502900000e-05     2     1     5     2
-4.2090000000e-06     2     1     5     3
 3.3930000000e-07     2     1     5     4
-8.5033629800e-02     2     1     5     5
-9.6675249000e-03     2     2     1     1
 1.7271570500e-02     2     2     1     3
 3.8395400000e-05     2     2     1     4
 1.8502900000e-05     2     2     1     5
 1.7271570500e-02     2     2     3     1
 4.4678105100e-02     2     2     3     3
-2.1126900000e-05     2     2     3     4
-8.7572000000e-06     2     2     3     5
 3.8395400000e-05     2     2     4     1
-2.1126900000e-05     2     2     4     3
 5.0821513500e-02     2     2     4     4
-2.0590000000e-07     2     2     4     5
 1.8502900000e-05     2     2     5     1
-8.7572000000e-06     2     2     5     3
-2.0590000000e-07     2     2     5     4
 5.0820793000e-02     2     2     5     5
-9.8050590000e-03     2     3     1     1
-1.7271570500e-02     2     3     1     2
 1.9558000000e-06     2     3     1     4
 1.0006000000e-06     2     3     1     5
 8.4235938800e-02     2     3     3     1
-4.4678105100e-02     2     3     3     2
 9.2539400000e-05     2     3     3     4
 4.0076900000e-05     2     3     3     5
 8.2995000000e-06     2     3     4     1
 2.1126900000e-05     2     3     4     2
-1.9096404200e-02     2     3     4     4
 7.3400000000e-08     2     3     4     5
 4.2090000000e-06     2     3     5     1
 8.7572000000e-06     2     3     5     2
 4.1000000000e-08     2     3     5     4
-1.9096148900e-02     2     3     5     5
-5.5169500000e-05     2     4     1     1
-3.8395400000e-05     2     4     1     2
-1.9558000000e-06     2     4     1     3
-3.0480000000e-07     2     4     1     5
 6.3437000000e-06     2     4     3     1
 2.1126900000e-05     2     4     3     2
-9.2539400000e-05     2     4     3     3
 3.2400000000e-08     2     4     3     5
 8.5034453000e-02     2     4     4     1
-5.0821513500e-02     2     4     4     2
 1.9096404200e-02     2     4     4     3
 4.1583400000e-05     2     4     4     5
-3.3930000000e-07     2     4     5     1
 2.0590000000e-07     2     4     5     2
-4.1000000000e-08     2     4     5     3
-9.5760900000e-05     2     4     5     5
-2.3907600000e-05     2     5     1     1
-1.8502900000e-05     2     5     1     2
-1.0006000000e-06     2     5     1     3
 3.0480000000e-07     2     5     1     4
 3.2084000000e-06     2     5     3     1
 8.7572000000e-06     2     5     3     2
-4.0076900000e-05     2     5     3     3
-3.2400000000e-08     2     5     3     4
-3.4500000000e-08     2     5     4     1
 2.0590000000e-07     2     5     4     2
-7.3400000000e-08     2     5     4     3
-4.1583400000e-05     2     5     4     4
 8.5033629800e-02     2     5     5     1
-5.0820793000e-02     2     5     5     2
 1.9096148900e-02     2     5     5     3
 9.5760900000e-05     2     5     5     4
 9.8050590000e-03     3     1     1     2
-8.9394249900e-02     3     1     1     3
 8.1544000000e-06     3     1     1     4
 2.9230000000e-06     3     1     1     5
 1.7271570500e-02     3     1     2     2
 8.4235938800e-02     3     1     2     3
 6.3437000000e-06     3     1     2     4
 3.2084000000e-06     3     1     2     5
-1.9558000000e-06     3     1     4     2
-1.2766150000e-04     3     1     4     3
 3.7099845900e-02     3     1     4     4
 2.7300000000e-08     3     1     4     5
-1.0006000000e-06     3     1     5     2
-5.7137400000e-05     3     1     5     3
-6.3300000000e-08     3     1     5     4
 3.7099697600e-02     3     1     5     5
-9.8050590000e-03     3     2     1     1
 8.4235938800e-02     3     2     1     3
 8.2995000000e-06     3     2     1     4
 4.2090000000e-06     3     2     1     5
-1.7271570500e-02     3     2     2     1
-4.4678105100e-02     3     2     2     3
 2.1126900000e-05     3     2     2     4
 8.7572000000e-06     3     2     2     5
 1.9558000000e-06     3     2     4     1
 9.2539400000e-05     3     2     4     3
-1.9096404200e-02     3     2     4     4
 4.1000000000e-08     3     2     4     5
 1.0006000000e-06     3     2     5     1
 4.0076900000e-05     3     2     5     3
 7.3400000000e-08     3     2     5     4
-1.9096148900e-02     3     2     5     5
 8.9394249900e-02     3     3     1     1
-8.4235938800e-02     3     3     1     2
 1.2766150000e-04     3     3     1     4
 5.7137400000e-05     3     3     1     5
-8.4235938800e-02     3     3     2     1
 4.4678105100e-02     3     3     2     2
-9.2539400000e-05     3     3     2     4
-4.0076900000e-05     3     3     2     5
 1.2766150000e-04     3     3     4     1
-9.2539400000e-05     3     3     4     2
 1.2760712920e-01     3     3     4     4
-3.9250000000e-07     3     3     4     5
 5.7137400000e-05     3     3     5     1
-4.0076900000e-05     3     3     5     2
-3.9250000000e-07     3     3     5     4
 1.2760543170e-01     3     3     5     5
-8.1544000000e-06     3     4     1     1
-8.2995000000e-06     3     4     1     2
-1.2766150000e-04     3     4     1     3
 9.0600000000e-08     3     4     1     5
-6.3437000000e-06     3     4     2     1
-2.1126900000e-05     3     4     2     2
 9.2539400000e-05     3     4     2     3
-3.2400000000e-08     3     4     2     5
-3.7099845900e-02     3     4     4     1
 1.9096404200e-02     3     4     4     2
-1.2760712920e-01     3     4     4     3
 5.8280000000e-07     3     4     4     5
 6.3300000000e-08     3     4     5     1
-7.3400000000e-08     3     4     5     2
 3.9250000000e-07     3     4     5     3
-3.2321000000e-06     3     4     5     5
-2.9230000000e-06     3     5     1     1
-4.2090000000e-06     3     5     1     2
-5.7137400000e-05     3     5     1     3
-9.0600000000e-08     3     5     1     4
-3.2084000000e-06     3     5     2     1
-8.7572000000e-06     3     5     2     2
 4.0076900000e-05     3     5     2     3
 3.2400000000e-08     3     5     2     4
-2.7300000000e-08     3     5     4     1
-4.1000000000e-08     3     5     4     2
 3.9250000000e-07     3     5     4     3
-5.8280000000e-07     3     5     4     4
-3.7099697600e-02     3     5     5     1
 1.9096148900e-02     3     5     5     2
-1.2760543170e-01     3     5     5     3
 3.2321000000e-06     3     5     5     4
 5.5169500000e-05     4     1     1     2
 8.1544000000e-06     4     1     1     3
-9.5076822300e-02     4     1     1     4
 3.5300000000e-07     4     1     1     5
 3.8395400000e-05     4     1     2     2
 8.2995000000e-06     4     1     2     3
 8.5034453000e-02     4     1     2     4
-3.4500000000e-08     4     1     2     5
 1.9558000000e-06     4     1     3     2
 1.2766150000e-04     4     1     3     3
-3.7099845900e-02     4     1     3     4
-2.7300000000e-08     4     1     3     5
 3.0480000000e-07     4     1     5     2
-9.0600000000e-08     4     1     5     3
-5.7867200000e-05     4     1     5     4
 1.2946480000e-04     4     1     5     5
-5.5169500000e-05     4     2     1     1
 6.3437000000e-06     4     2     1     3
 8.5034453000e-02     4     2     1     4
-3.3930000000e-07     4     2     1     5
-3.8395400000e-05     4     2     2     1
 2.1126900000e-05     4     2     2     3
-5.0821513500e-02     4     2     2     4
 2.0590000000e-07     4     2     2     5
-1.9558000000e-06     4     2     3     1
-9.2539400000e-05     4     2     3     3
 1.9096404200e-02     4     2     3     4
-4.1000000000e-08     4     2     3     5
-3.0480000000e-07     4     2     5     1
 3.2400000000e-08     4     2     5     3
 4.1583400000e-05     4     2     5     4
-9.5760900000e-05     4     2     5     5
-8.1544000000e-06     4     3     1     1
-6.3437000000e-06     4     3     1     2
-3.7099845900e-02     4     3     1     4
 6.3300000000e-08     4     3     1     5
-8.2995000000e-06     4     3     2     1
-2.1126900000e-05     4     3     2     2
 1.9096404200e-02     4     3     2     4
-7.3400000000e-08     4     3     2     5
-1.2766150000e-04     4     3     3     1
 9.2539400000e-05     4     3     3     2
-1.2760712920e-01     4     3     3     4
 3.9250000000e-07     4     3     3     5
 9.0600000000e-08     4     3     5     1
-3.2400000000e-08     4     3     5     2
 5.8280000000e-07     4     3     5     4
-3.2321000000e-06     4     3     5     5
 9.5076822300e-02     4     4     1     1
-8.5034453000e-02     4     4     1     2
 3.7099845900e-02     4     4     1     3
 5.7867200000e-05     4     4     1     5
-8.5034453000e-02     4     4     2     1
 5.0821513500e-02     4     4     2     2
-1.9096404200e-02     4     4     2     3
-4.1583400000e-05     4     4     2     5
 3.7099845900e-02     4     4     3     1
-1.9096404200e-02     4     4     3     2
 1.2760712920e-01     4     4     3     3
-5.8280000000e-07     4     4     3     5
 5.7867200000e-05     4     4     5     1
-4.1583400000e-05     4     4     5     2
-5.8280000000e-07     4     4     5     3
 1.3184014490e-01     4     4     5     5
-3.5300000000e-07     4     5     1     1
 3.3930000000e-07     4     5     1     2
-6.3300000000e-08     4     5     1     3
-5.7867200000e-05     4     5     1     4
 3.4500000000e-08     4     5     2     1
-2.0590000000e-07     4     5     2     2
 7.3400000000e-08     4     5     2     3
 4.1583400000e-05     4     5     2     4
 2.7300000000e-08     4     5     3     1
 4.1000000000e-08     4     5     3     2
-3.9250000000e-07     4     5     3     3
 5.8280000000e-07     4     5     3     4
-1.2946480000e-04     4     5     5     1
 9.5760900000e-05     4     5     5     2
 3.2321000000e-06     4     5     5     3
-1.3184014490e-01     4     5     5     4
 2.3907600000e-05     5     1     1     2
 2.9230000000e-06     5     1     1     3
 3.5300000000e-07     5     1     1     4
-9.5075314200e-02     5     1     1     5
 1.8502900000e-05     5     1     2     2
 4.2090000000e-06     5     1     2     3
-3.3930000000e-07     5     1     2     4
 8.5033629800e-02     5     1     2     5
 1.0006000000e-06     5     1     3     2
 5.7137400000e-05     5     1     3     3
 6.3300000000e-08     5     1     3     4
-3.7099697600e-02     5     1     3     5
-3.0480000000e-07     5     1     4     2
 9.0600000000e-08     5     1     4     3
 5.7867200000e-05     5     1     4     4
-1.2946480000e-04     5     1     4     5
-2.3907600000e-05     5     2     1     1
 3.2084000000e-06     5     2     1     3
-3.4500000000e-08     5     2     1     4
 8.5033629800e-02     5     2     1     5
-1.8502900000e-05     5     2     2     1
 8.7572000000e-06     5     2     2     3
 2.0590000000e-07     5     2     2     4
-5.0820793000e-02     5     2     2     5
-1.0006000000e-06     5     2     3     1
-4.0076900000e-05     5     2     3     3
-7.3400000000e-08     5     2     3     4
 1.9096148900e-02     5     2     3     5
 3.0480000000e-07     5     2     4     1
-3.2400000000e-08     5     2     4     3
-4.1583400000e-05     5     2     4     4
 9.5760900000e-05     5     2     4     5
-2.9230000000e-06     5     3     1     1
-3.2084000000e-06     5     3     1     2
-2.7300000000e-08     5     3     1     4
-3.7099697600e-02     5     3     1     5
-4.2090000000e-06     5     3     2     1
-8.7572000000e-06     5     3     2     2
-4.1000000000e-08     5     3     2     4
 1.9096148900e-02     5     3     2     5
-5.7137400000e-05     5     3     3     1
 4.0076900000e-05     5     3     3     2
 3.9250000000e-07     5     3     3     4
-1.2760543170e-01     5     3     3     5
-9.0600000000e-08     5     3     4     1
 3.2400000000e-08     5     3     4     2
-5.8280000000e-07     5     3     4     4
 3.2321000000e-06     5     3     4     5
-3.5300000000e-07     5     4     1     1
 3.4500000000e-08     5     4     1     2
 2.7300000000e-08     5     4     1     3
-1.2946480000e-04     5     4     1     5
 3.3930000000e-07     5     4     2     1
-2.0590000000e-07     5     4     2     2
 4.1000000000e-08     5     4     2     3
 9.5760900000e-05     5     4     2     5
-6.3300000000e-08     5     4     3     1
 7.3400000000e-08     5     4     3     2
-3.9250000000e-07     5     4     3     3
 3.2321000000e-06     5     4     3     5
-5.7867200000e-05     5     4     4     1
 4.1583400000e-05     5     4     4     2
 5.8280000000e-07     5     4     4     3
-1.3184014490e-01     5     4     4     5
 9.5075314200e-02     5     5     1     1
-8.5033629800e-02     5     5     1     2
 3.7099697600e-02     5     5     1     3
 1.2946480000e-04     5     5     1     4
-8.5033629800e-02     5     5     2     1
 5.0820793000e-02     5     5     2     2
-1.9096148900e-02     5     5     2     3
-9.5760900000e-05     5     5     2     4
 3.7099697600e-02     5     5     3     1
-1.9096148900e-02     5     5     3     2
 1.2760543170e-01     5     5     3     3
-3.2321000000e-06     5     5     3     4
 1.2946480000e-04     5     5     4     1
-9.5760900000e-05     5     5     4     2
-3.2321000000e-06     5     5     4     3
 1.3184014490e-01     5     5     4     4
0.0 0 0 0 0
-9.6675249000e-03     1     1     2     2
-9.8050590000e-03     1     1     2     3
-5.5169500000e-05     1     1     2     4
-2.3907600000e-05     1     1     2     5
-9.8050590000e-03     1     1     3     2
 8.9394249900e-02     1     1     3     3
-8.1544000000e-06     1     1     3     4
-2.9230000000e-06     1     1     3     5
-5.5169500000e-05     1     1     4     2
-8.1544000000e-06     1     1     4     3
 9.5076822300e-02     1     1     4     4
-3.5300000000e-07     1     1     4     5
-2.3907600000e-05     1     1     5     2
-2.9230000000e-06     1     1     5     3
-3.5300000000e-07     1     1     5     4
 9.5075314200e-02     1     1     5     5
 9.6675249000e-03     1     2     2     1
-1.7271570500e-02     1     2     2     3
-3.8395400000e-05     1     2     2     4
-1.8502900000e-05     1     2     2     5
 9.8050590000e-03     1     2     3     1
-8.4235938800e-02     1     2     3     3
-8.2995000000e-06     1     2     3     4
-4.2090000000e-06     1     2     3     5
 5.5169500000e-05     1     2     4     1
-6.3437000000e-06     1     2     4     3
-8.5034453000e-02     1     2     4     4
 3.3930000000e-07     1     2     4     5
 2.3907600000e-05     1     2     5     1
-3.2084000000e-06     1     2     5     3
 3.4500000000e-08     1     2     5     4
-8.5033629800e-02     1     2     5     5
 9.8050590000e-03     1     3     2     1
 1.7271570500e-02     1     3     2     2
-1.9558000000e-06     1     3     2     4
-1.0006000000e-06     1     3     2     5
-8.9394249900e-02     1     3     3     1
 8.4235938800e-02     1     3     3     2
-1.2766150000e-04     1     3     3     4
-5.7137400000e-05     1     3     3     5
 8.1544000000e-06     1     3     4     1
 6.3437000000e-06     1     3     4     2
 3.7099845900e-02     1     3     4     4
-6.3300000000e-08     1     3     4     5
 2.9230000000e-06     1     3     5     1
 3.2084000000e-06     1     3     5     2
 2.7300000000e-08     1     3     5     4
 3.7099697600e-02     1     3     5     5
 5.5169500000e-05     1     4     2     1
 3.8395400000e-05     1     4     2     2
 1.9558000000e-06     1     4     2     3
 3.0480000000e-07     1     4     2     5
 8.1544000000e-06     1     4     3     1
 8.2995000000e-06     1     4     3     2
 1.2766150000e-04     1     4     3     3
-9.0600000000e-08     1     4     3     5
-9.5076822300e-02     1     4     4     1
 8.5034453000e-02     1     4     4     2
-3.7099845900e-02     1     4     4     3
-5.7867200000e-05     1     4     4     5
 3.5300000000e-07     1     4     5     1
-3.4500000000e-08     1     4     5     2
-2.7300000000e-08     1     4     5     3
 1.2946480000e-04     1     4     5     5
 2.3907600000e-05     1     5     2     1
 1.8502900000e-05     1     5     2     2
 1.0006000000e-06     1     5     2     3
-3.0480000000e-07     1     5     2     4
 2.9230000000e-06     1     5     3     1
 4.2090000000e-06     1     5     3     2
 5.7137400000e-05     1     5     3     3
 9.0600000000e-08     1     5     3     4
 3.5300000000e-07     1     5     4     1
-3.3930000000e-07     1     5     4     2
 6.3300000000e-08     1     5     4     3
 5.7867200000e-05     1     5     4     4
-9.5075314200e-02     1     5     5     1
 8.5033629800e-02     1     5     5     2
-3.7099697600e-02     1     5     5     3
-1.2946480000e-04     1     5     5     4
 9.6675249000e-03     2     1     1     2
 9.8050590000e-03     2     1     1     3
 5.5169500000e-05     2     1     1     4
 2.3907600000e-05     2     1     1     5
-1.7271570500e-02     2     1     3     2
-8.4235938800e-02     2     1     3     3
-6.3437000000e-06     2     1     3     4
-3.2084000000e-06     2     1     3     5
-3.8395400000e-05     2     1     4     2
-8.2995000000e-06     2     1     4     3
-8.5034453000e-02     2     1     4     4
 3.4500000000e-08     2     1     4     5
-1.8502900000e-05     2     1     5     2
-4.2090000000e-06     2     1     5     3
 3.3930000000e-07     2     1     5     4
-8.5033629800e-02     2     1     5     5
-9.6675249000e-03     2     2     1     1
 1.7271570500e-02     2     2     1     3
 3.8395400000e-05     2     2     1     4
 1.8502900000e-05     2     2     1     5
 1.7271570500e-02     2     2     3     1
 4.4678105100e-02     2     2     3     3
-2.1126900000e-05     2     2     3     4
-8.7572000000e-06     2     2     3     5
 3.8395400000e-05     2     2     4     1
-2.1126900000e-05     2     2     4     3
 5.0821513500e-02     2     2     4     4
-2.0590000000e-07     2     2     4     5
 1.8502900000e-05     2     2     5     1
-8.7572000000e-06     2     2     5     3
-2.0590000000e-07     2     2     5     4
 5.0820793000e-02     2     2     5     5
-9.8050590000e-03     2     3     1     1
-1.7271570500e-02     2     3     1     2
 1.9558000000e-06     2     3     1     4
 1.0006000000e-06     2     3     1     5
 8.4235938800e-02     2     3     3     1
-4.4678105100e-02     2     3     3     2
 9.2539400000e-05     2     3     3     4
 4.0076900000e-05     2     3     3     5
 8.2995000000e-06     2     3     4     1
 2.1126900000e-05     2     3     4     2
-1.9096404200e-02     2     3     4     4
 7.3400000000e-08     2     3     4     5
 4.2090000000e-06     2     3     5     1
 8.7572000000e-06     2     3     5     2
 4.1000000000e-08     2     3     5     4
-1.9096148900e-02     2     3     5     5
-5.5169500000e-05     2     4     1     1
-3.8395400000e-05     2     4     1     2
-1.9558000000e-06     2     4     1     3
-3.0480000000e-07     2     4     1     5
 6.3437000000e-06     2     4     3     1
 2.1126900000e-05     2     4     3     2
-9.2539400000e-05     2     4     3     3
 3.2400000000e-08     2     4     3     5
 8.5034453000e-02     2     4     4     1
-5.0821513500e-02     2     4     4     2
 1.9096404200e-02     2     4     4     3
 4.1583400000e-05     2     4     4     5
-3.3930000000e-07     2     4     5     1
 2.0590000000e-07     2     4     5     2
-4.1000000000e-08     2     4     5     3
-9.5760900000e-05     2     4     5     5
-2.3907600000e-05     2     5     1     1
-1.8502900000e-05     2     5     1     2
-1.0006000000e-06     2     5     1     3
 3.0480000000e-07     2     5     1     4
 3.2084000000e-06     2     5     3     1
 8.7572000000e-06     2     5     3     2
-4.0076900000e-05     2     5     3     3
-3.2400000000e-08     2     5     3     4
-3.4500000000e-08     2     5     4     1
 2.0590000000e-07     2     5     4     2
-7.3400000000e-08     2     5     4     3
-4.1583400000e-05     2     5     4     4
 8.5033629800e-02     2     5     5     1
-5.0820793000e-02     2     5     5     2
 1.9096148900e-02     2     5     5     3
 9.5760900000e-05     2     5     5     4
 9.8050590000e-03     3     1     1     2
-8.9394249900e-02     3     1     1     3
 8.1544000000e-06     3     1     1     4
 2.9230000000e-06     3     1     1     5
 1.7271570500e-02     3     1     2     2
 8.4235938800e-02     3     1     2     3
 6.3437000000e-06     3     1     2     4
 3.2084000000e-06     3     1     2     5
-1.9558000000e-06     3     1     4     2
-1.2766150000e-04     3     1     4     3
 3.7099845900e-02     3     1     4     4
 2.7300000000e-08     3     1     4     5
-1.0006000000e-06     3     1     5     2
-5.7137400000e-05     3     1     5     3
-6.3300000000e-08     3     1     5     4
 3.7099697600e-02     3     1     5     5
-9.8050590000e-03     3     2     1     1
 8.4235938800e-02     3     2     1     3
 8.2995000000e-06     3     2     1     4
 4.2090000000e-06     3     2     1     5
-1.7271570500e-02     3     2     2     1
-4.4678105100e-02     3     2     2     3
 2.1126900000e-05     3     2     2     4
 8.7572000000e-06     3     2     2     5
 1.9558000000e-06     3     2     4     1
 9.2539400000e-05     3     2     4     3
-1.9096404200e-02     3     2     4     4
 4.1000000000e-08     3     2     4     5
 1.0006000000e-06     3     2     5     1
 4.0076900000e-05     3     2     5     3
 7.3400000000e-08     3     2     5     4
-1.9096148900e-02     3     2     5     5
 8.9394249900e-02     3     3     1     1
-8.4235938800e-02     3     3     1     2
 1.2766150000e-04     3     3     1     4
 5.7137400000e-05     3     3     1     5
-8.4235938800e-02     3     3     2     1
 4.4678105100e-02     3     3     2     2
-9.2539400000e-05     3     3     2     4
-4.0076900000e-05     3     3     2     5
 1.2766150000e-04     3     3     4     1
-9.2539400000e-05     3     3     4     2
 1.2760712920e-01     3     3     4     4
-3.9250000000e-07     3     3     4     5
 5.7137400000e-05     3     3     5     1
-4.0076900000e-05     3     3     5     2
-3.9250000000e-07     3     3     5     4
 1.2760543170e-01     3     3     5     5
-8.1544000000e-06     3     4     1     1
-8.2995000000e-06     3     4     1     2
-1.2766150000e-04     3     4     1     3
 9.0600000000e-08     3     4     1     5
-6.3437000000e-06     3     4     2     1
-2.1126900000e-05     3     4     2     2
 9.2539400000e-05     3     4     2     3
-3.2400000000e-08     3     4     2     5
-3.7099845900e-02     3     4     4     1
 1.9096404200e-02     3     4     4     2
-1.2760712920e-01     3     4     4     3
 5.8280000000e-07     3     4     4     5
 6.3300000000e-08     3     4     5     1
-7.3400000000e-08     3     4     5     2
 3.9250000000e-07     3     4     5     3
-3.2321000000e-06     3     4     5     5
-2.9230000000e-06     3     5     1     1
-4.2090000000e-06     3     5     1     2
-5.7137400000e-05     3     5     1     3
-9.0600000000e-08     3     5     1     4
-3.2084000000e-06     3     5     2     1
-8.7572000000e-06     3     5     2     2
 4.0076900000e-05     3     5     2     3
 3.2400000000e-08     3     5     2     4
-2.7300000000e-08     3     5     4     1
-4.1000000000e-08     3     5     4     2
 3.9250000000e-07     3     5     4     3
-5.8280000000e-07     3     5     4     4
-3.7099697600e-02     3     5     5     1
 1.9096148900e-02     3     5     5     2
-1.2760543170e-01     3     5     5     3
 3.2321000000e-06     3     5     5     4
 5.5169500000e-05     4     1     1     2
 8.1544000000e-06     4     1     1     3
-9.5076822300e-02     4     1     1     4
 3.5300000000e-07     4     1     1     5
 3.8395400000e-05     4     1     2     2
 8.2995000000e-06     4     1     2     3
 8.5034453000e-02     4     1     2     4
-3.4500000000e-08     4     1     2     5
 1.9558000000e-06     4     1     3     2
 1.2766150000e-04     4     1     3     3
-3.7099845900e-02     4     1     3     4
-2.7300000000e-08     4     1     3     5
 3.0480000000e-07     4     1     5     2
-9.0600000000e-08     4     1     5     3
-5.7867200000e-05     4     1     5     4
 1.2946480000e-04     4     1     5     5
-5.5169500000e-05     4     2     1     1
 6.3437000000e-06     4     2     1     3
 8.5034453000e-02     4     2     1     4
-3.3930000000e-07     4     2     1     5
-3.8395400000e-05     4     2     2     1
 2.1126900000e-05     4     2     2     3
-5.0821513500e-02     4     2     2     4
 2.0590000000e-07     4     2     2     5
-1.9558000000e-06     4     2     3     1
-9.2539400000e-05     4     2     3     3
 1.9096404200e-02     4     2     3     4
-4.1000000000e-08     4     2     3     5
-3.0480000000e-07     4     2     5     1
 3.2400000000e-08     4     2     5     3
 4.1583400000e-05     4     2     5     4
-9.5760900000e-05     4     2     5     5
-8.1544000000e-06     4     3     1     1
-6.3437000000e-06     4     3     1     2
-3.7099845900e-02     4     3     1     4
 6.3300000000e-08     4     3     1     5
-8.2995000000e-06     4     3     2     1
-2.1126900000e-05     4     3     2     2
 1.9096404200e-02     4     3     2     4
-7.3400000000e-08     4     3     2     5
-1.2766150000e-04     4     3     3     1
 9.2539400000e-05     4     3     3     2
-1.2760712920e-01     4     3     3     4
 3.9250000000e-07     4     3     3     5
 9.0600000000e-08     4     3     5     1
-3.2400000000e-08     4     3     5     2
 5.8280000000e-07     4     3     5     4
-3.2321000000e-06     4     3     5     5
 9.5076822300e-02     4     4     1     1
-8.5034453000e-02     4     4     1     2
 3.7099845900e-02     4     4     1     3
 5.7867200000e-05     4     4     1     5
-8.5034453000e-02     4     4     2     1
 5.0821513500e-02     4     4     2     2
-1.9096404200e-02     4     4     2     3
-4.1583400000e-05     4     4     2     5
 3.7099845900e-02     4     4     3     1
-1.9096404200e-02     4     4     3     2
 1.2760712920e-01     4     4     3     3
-5.8280000000e-07     4     4     3     5
 5.7867200000e-05     4     4     5     1
-4.1583400000e-05     4     4     5     2
-5.8280000000e-07     4     4     5     3
 1.3184014490e-01     4     4     5     5
-3.5300000000e-07     4     5     1     1
 3.3930000000e-07     4     5     1     2
-6.3300000000e-08     4     5     1     3
-5.7867200000e-05     4     5     1     4
 3.4500000000e-08     4     5     2     1
-2.0590000000e-07     4     5     2     2
 7.3400000000e-08     4     5     2     3
 4.1583400000e-05     4     5     2     4