&FCI NORB=  5,NELEC=  2,MS2=0,
 ORBSYM=1,1,1,1,1
 ISYM=1,
&END
-3.0031358900e-02     1     1     2     2
 2.3634462200e-02     1     1     2     3
 2.8165400000e-05     1     1     2     4
 3.3334290000e-04     1     1     2     5
 2.3634462200e-02     1     1     3     2
 8.4993498900e-02     1     1     3     3
-1.4708000000e-06     1     1     3     4
-3.1674100000e-05     1     1     3     5
 2.8165400000e-05     1     1     4     2
-1.4708000000e-06     1     1     4     3
 9.3871042800e-02     1     1     4     4
-1.8800000000e-08     1     1     4     5
 3.3334290000e-04     1     1     5     2
-3.1674100000e-05     1     1     5     3
-1.8800000000e-08     1     1     5     4
 9.3865026400e-02     1     1     5     5
 3.0031358900e-02     1     2     2     1
 3.0555728000e-03     1     2     2     3
-2.4139200000e-05     1     2     2     4
-2.6676750000e-04     1     2     2     5
-2.3634462200e-02     1     2     3     1
-8.3334807200e-02     1     2     3     3
 1.6128000000e-06     1     2     3     4
 2.6460900000e-05     1     2     3     5
-2.8165400000e-05     1     2     4     1
 4.2678000000e-06     1     2     4     3
-8.7328500400e-02     1     2     4     4
 2.2580000000e-07     1     2     4     5
-3.3334290000e-04     1     2     5     1
 5.2784900000e-05     1     2     5     3
-6.7700000000e-08     1     2     5     4
-8.7324413800e-02     1     2     5     5
-2.3634462200e-02     1     3     2     1
-3.0555728000e-03     1     3     2     2
-2.6550000000e-06     1     3     2     4
-2.6324000000e-05     1     3     2     5
-8.4993498900e-02     1     3     3     1
 8.3334807200e-02     1     3     3     2
 1.4304600000e-05     1     3     3     4
 2.0423500000e-04     1     3     3     5
 1.4708000000e-06     1     3     4     1
-4.2678000000e-06     1     3     4     2
-4.4216297000e-02     1     3     4     4
 1.3010000000e-07     1     3     4     5
 3.1674100000e-05     1     3     5     1
-5.2784900000e-05     1     3     5     2
-1.0710000000e-07     1     3     5     4
-4.4215191300e-02     1     3     5     5
-2.8165400000e-05     1     4     2     1
 2.4139200000e-05     1     4     2     2
 2.6550000000e-06     1     4     2     3
 2.9350000000e-07     1     4     2     5
 1.4708000000e-06     1     4     3     1
-1.6128000000e-06     1     4     3     2
-1.4304600000e-05     1     4     3     3
 2.3720000000e-07     1     4     3     5
-9.3871042800e-02     1     4     4     1
 8.7328500400e-02     1     4     4     2
 4.4216297000e-02     1     4     4     3
 2.0434140000e-04     1     4     4     5
 1.8800000000e-08     1     4     5     1
 6.7700000000e-08     1     4     5     2
 1.0710000000e-07     1     4     5     3
-1.4128800000e-05     1     4     5     5
-3.3334290000e-04     1     5     2     1
 2.6676750000e-04     1     5     2     2
 2.6324000000e-05     1     5     2     3
-2.9350000000e-07     1     5     2     4
 3.1674100000e-05     1     5     3     1
-2.6460900000e-05     1     5     3     2
-2.0423500000e-04     1     5     3     3
-2.3720000000e-07     1     5     3     4
 1.8800000000e-08     1     5     4     1
-2.2580000000e-07     1     5     4     2
-1.3010000000e-07     1     5     4     3
-2.0434140000e-04     1     5     4     4
-9.3865026400e-02     1     5     5     1
 8.7324413800e-02     1     5     5     2
 4.4215191300e-02     1     5     5     3
 1.4128800000e-05     1     5     5     4
 3.0031358900e-02     2     1     1     2
-2.3634462200e-02     2     1     1     3
-2.8165400000e-05     2     1     1     4
-3.3334290000e-04     2     1     1     5
 3.0555728000e-03     2     1     3     2
-8.3334807200e-02     2     1     3     3
 4.2678000000e-06     2     1     3     4
 5.2784900000e-05     2     1     3     5
-2.4139200000e-05     2     1     4     2
 1.6128000000e-06     2     1     4     3
-8.7328500400e-02     2     1     4     4
-6.7700000000e-08     2     1     4     5
-2.6676750000e-04     2     1     5     2
 2.6460900000e-05     2     1     5     3
 2.2580000000e-07     2     1     5     4
-8.7324413800e-02     2     1     5     5
-3.0031358900e-02     2     2     1     1
-3.0555728000e-03     2     2     1     3
 2.4139200000e-05     2     2     1     4
 2.6676750000e-04     2     2     1     5
-3.0555728000e-03     2     2     3     1
 1.2857646000e-02     2     2     3     3
-1.2988700000e-05     2     2     3     4
-1.6332560000e-04     2     2     3     5
 2.4139200000e-05     2     2     4     1
-1.2988700000e-05     2     2     4     3
 2.9072815700e-02     2     2     4     4
-9.5500000000e-08     2     2     4     5
 2.6676750000e-04     2     2     5     1
-1.6332560000e-04     2     2     5     3
-9.5500000000e-08     2     2     5     4
 2.9069083900e-02     2     2     5     5
 2.3634462200e-02     2     3     1     1
 3.0555728000e-03     2     3     1     2
 2.6550000000e-06     2     3     1     4
 2.6324000000e-05     2     3     1     5
 8.3334807200e-02     2     3     3     1
-1.2857646000e-02     2     3     3     2
-4.3665700000e-05     2     3     3     4
-5.2915830000e-04     2     3     3     5
-1.6128000000e-06     2     3     4     1
 1.2988700000e-05     2     3     4     2
 4.2610464600e-02     2     3     4     4
-9.6300000000e-08     2     3     4     5
-2.6460900000e-05     2     3     5     1
 1.6332560000e-04     2     3     5     2
 5.4400000000e-08     2     3     5     4
 4.2608404300e-02     2     3     5     5
 2.8165400000e-05     2     4     1     1
-2.4139200000e-05     2     4     1     2
-2.6550000000e-06     2     4     1     3
-2.9350000000e-07     2     4     1     5
-4.2678000000e-06     2     4     3     1
 1.2988700000e-05     2     4     3     2
 4.3665700000e-05     2     4     3     3
-1.5070000000e-07     2     4     3     5
 8.7328500400e-02     2     4     4     1
-2.9072815700e-02     2     4     4     2
-4.2610464600e-02     2     4     4     3
-5.4353070000e-04     2     4     4     5
-2.2580000000e-07     2     4     5     1
 9.5500000000e-08     2     4     5     2
-5.4400000000e-08     2     4     5     3
 4.5164900000e-05     2     4     5     5
 3.3334290000e-04     2     5     1     1
-2.6676750000e-04     2     5     1     2
-2.6324000000e-05     2     5     1     3
 2.9350000000e-07     2     5     1     4
-5.2784900000e-05     2     5     3     1
 1.6332560000e-04     2     5     3     2
 5.2915830000e-04     2     5     3     3
 1.5070000000e-07     2     5     3     4
 6.7700000000e-08     2     5     4     1
 9.5500000000e-08     2     5     4     2
 9.6300000000e-08     2     5     4     3
 5.4353070000e-04     2     5     4     4
 8.7324413800e-02     2     5     5     1
-2.9069083900e-02     2     5     5     2
-4.2608404300e-02     2     5     5     3
-4.5164900000e-05     2     5     5     4
-2.3634462200e-02     3     1     1     2
-8.4993498900e-02     3     1     1     3
 1.4708000000e-06     3     1     1     4
 3.1674100000e-05     3     1     1     5
-3.0555728000e-03     3     1     2     2
 8.3334807200e-02     3     1     2     3
-4.2678000000e-06     3     1     2     4
-5.2784900000e-05     3     1     2     5
-2.6550000000e-06     3     1     4     2
 1.4304600000e-05     3     1     4     3
-4.4216297000e-02     3     1     4     4
-1.0710000000e-07     3     1     4     5
-2.6324000000e-05     3     1     5     2
 2.0423500000e-04     3     1     5     3
 1.3010000000e-07     3     1     5     4
-4.4215191300e-02     3     1     5     5
 2.3634462200e-02     3     2     1     1
 8.3334807200e-02     3     2     1     3
-1.6128000000e-06     3     2     1     4
-2.6460900000e-05     3     2     1     5
 3.0555728000e-03     3     2     2     1
-1.2857646000e-02     3     2     2     3
 1.2988700000e-05     3     2     2     4
 1.6332560000e-04     3     2     2     5
 2.6550000000e-06     3     2     4     1
-4.3665700000e-05     3     2     4     3
 4.2610464600e-02     3     2     4     4
 5.4400000000e-08     3     2     4     5
 2.6324000000e-05     3     2     5     1
-5.2915830000e-04     3     2     5     3
-9.6300000000e-08     3     2     5     4
 4.2608404300e-02     3     2     5     5
 8.4993498900e-02     3     3     1     1
-8.3334807200e-02     3     3     1     2
-1.4304600000e-05     3     3     1     4
-2.0423500000e-04     3     3     1     5
-8.3334807200e-02     3     3     2     1
 1.2857646000e-02     3     3     2     2
 4.3665700000e-05     3     3     2     4
 5.2915830000e-04     3     3     2     5
-1.4304600000e-05     3     3     4     1
 4.3665700000e-05     3     3     4     2
 1.2627524030e-01     3     3     4     4
-7.0900000000e-08     3     3     4     5
-2.0423500000e-04     3     3     5     1
 5.2915830000e-04     3     3     5     2
-7.0900000000e-08     3     3     5     4
 1.2626750680e-01     3     3     5     5
-1.4708000000e-06     3     4     1     1
 1.6128000000e-06     3     4     1     2
 1.4304600000e-05     3     4     1     3
-2.3720000000e-07     3     4     1     5
 4.2678000000e-06     3     4     2     1
-1.2988700000e-05     3     4     2     2
-4.3665700000e-05     3     4     2     3
 1.5070000000e-07     3     4     2     5
 4.4216297000e-02     3     4     4     1
-4.2610464600e-02     3     4     4     2
-1.2627524030e-01     3     4     4     3
 6.3759800000e-05     3     4     4     5
-1.3010000000e-07     3     4     5     1
 9.6300000000e-08     3     4     5     2
 7.0900000000e-08     3     4     5     3
-4.1880000000e-06     3     4     5     5
-3.1674100000e-05     3     5     1     1
 2.6460900000e-05     3     5     1     2
 2.0423500000e-04     3     5     1     3
 2.3720000000e-07     3     5     1     4
 5.2784900000e-05     3     5     2     1
-1.6332560000e-04     3     5     2     2
-5.2915830000e-04     3     5     2     3
-1.5070000000e-07     3     5     2     4
 1.0710000000e-07     3     5     4     1
-5.4400000000e-08     3     5     4     2
 7.0900000000e-08     3     5     4     3
-6.3759800000e-05     3     5     4     4
 4.4215191300e-02     3     5     5     1
-4.2608404300e-02     3     5     5     2
-1.2626750680e-01     3     5     5     3
 4.1880000000e-06     3     5     5     4
-2.8165400000e-05     4     1     1     2
 1.4708000000e-06     4     1     1     3
-9.3871042800e-02     4     1     1     4
 1.8800000000e-08     4     1     1     5
 2.4139200000e-05     4     1     2     2
-1.6128000000e-06     4     1     2     3
 8.7328500400e-02     4     1     2     4
 6.7700000000e-08     4     1     2     5
 2.6550000000e-06     4     1     3     2
-1.4304600000e-05     4     1     3     3
 4.4216297000e-02     4     1     3     4
 1.0710000000e-07     4     1     3     5
 2.9350000000e-07     4     1     5     2
 2.3720000000e-07     4     1     5     3
 2.0434140000e-04     4     1     5     4
-1.4128800000e-05     4     1     5     5
 2.8165400000e-05     4     2     1     1
-4.2678000000e-06     4     2     1     3
 8.7328500400e-02     4     2     1     4
-2.2580000000e-07     4     2     1     5
-2.4139200000e-05     4     2     2     1
 1.2988700000e-05     4     2     2     3
-2.9072815700e-02     4     2     2     4
 9.5500000000e-08     4     2     2     5
-2.6550000000e-06     4     2     3     1
 4.3665700000e-05     4     2     3     3
-4.2610464600e-02     4     2     3     4
-5.4400000000e-08     4     2     3     5
-2.9350000000e-07     4     2     5     1
-1.5070000000e-07     4     2     5     3
-5.4353070000e-04     4     2     5     4
 4.5164900000e-05     4     2     5     5
-1.4708000000e-06     4     3     1     1
 4.2678000000e-06     4     3     1     2
 4.4216297000e-02     4     3     1     4
-1.3010000000e-07     4     3     1     5
 1.6128000000e-06     4     3     2     1
-1.2988700000e-05     4     3     2     2
-4.2610464600e-02     4     3     2     4
 9.6300000000e-08     4     3     2     5
 1.4304600000e-05     4     3     3     1
-4.3665700000e-05     4     3     3     2
-1.2627524030e-01     4     3     3     4
 7.0900000000e-08     4     3     3     5
-2.3720000000e-07     4     3     5     1
 1.5070000000e-07     4     3     5     2
 6.3759800000e-05     4     3     5     4
-4.1880000000e-06     4     3     5     5
 9.3871042800e-02     4     4     1     1
-8.7328500400e-02     4     4     1     2
-4.4216297000e-02     4     4     1     3
-2.0434140000e-04     4     4     1     5
-8.7328500400e-02     4     4     2     1
 2.9072815700e-02     4     4     2     2
 4.2610464600e-02     4     4     2     3
 5.4353070000e-04     4     4     2     5
-4.4216297000e-02     4     4     3     1
 4.2610464600e-02     4     4     3     2
 1.2627524030e-01     4     4     3     3
-6.3759800000e-05     4     4     3     5
-2.0434140000e-04     4     4     5     1
 5.4353070000e-04     4     4     5     2
-6.3759800000e-05     4     4     5     3
 1.3518824920e-01     4     4     5     5
-1.8800000000e-08     4     5     1     1
 2.2580000000e-07     4     5     1     2
 1.3010000000e-07     4     5     1     3
 2.0434140000e-04     4     5     1     4
-6.7700000000e-08     4     5     2     1
-9.5500000000e-08     4     5     2     2
-9.6300000000e-08     4     5     2     3
-5.4353070000e-04     4     5     2     4
-1.0710000000e-07     4     5     3     1
 5.4400000000e-08     4     5     3     2
-7.0900000000e-08     4     5     3     3
 6.3759800000e-05     4     5     3     4
 1.4128800000e-05     4     5     5     1
-4.5164900000e-05     4     5     5     2
 4.1880000000e-06     4     5     5     3
-1.3518824920e-01     4     5     5     4
-3.3334290000e-04     5     1     1     2
 3.1674100000e-05     5     1     1     3
 1.8800000000e-08     5     1     1     4
-9.3865026400e-02     5     1     1     5
 2.6676750000e-04     5     1     2     2
-2.6460900000e-05     5     1     2     3
-2.2580000000e-07     5     1     2     4
 8.7324413800e-02     5     1     2     5
 2.6324000000e-05     5     1     3     2
-2.0423500000e-04     5     1     3     3
-1.3010000000e-07     5     1     3     4
 4.4215191300e-02     5     1     3     5
-2.9350000000e-07     5     1     4     2
-2.3720000000e-07     5     1     4     3
-2.0434140000e-04     5     1     4     4
 1.4128800000e-05     5     1     4     5
 3.3334290000e-04     5     2     1     1
-5.2784900000e-05     5     2     1     3
 6.7700000000e-08     5     2     1     4
 8.7324413800e-02     5     2     1     5
-2.6676750000e-04     5     2     2     1
 1.6332560000e-04     5     2     2     3
 9.5500000000e-08     5     2     2     4
-2.9069083900e-02     5     2     2     5
-2.6324000000e-05     5     2     3     1
 5.2915830000e-04     5     2     3     3
 9.6300000000e-08     5     2     3     4
-4.2608404300e-02     5     2     3     5
 2.9350000000e-07     5     2     4     1
 1.5070000000e-07     5     2     4     3
 5.4353070000e-04     5     2     4     4
-4.5164900000e-05     5     2     4     5
-3.1674100000e-05     5     3     1     1
 5.2784900000e-05     5     3     1     2
 1.0710000000e-07     5     3     1     4
 4.4215191300e-02     5     3     1     5
 2.6460900000e-05     5     3     2     1
-1.6332560000e-04     5     3     2     2
-5.4400000000e-08     5     3     2     4
-4.2608404300e-02     5     3     2     5
 2.0423500000e-04     5     3     3     1
-5.2915830000e-04     5     3     3     2
 7.0900000000e-08     5     3     3     4
-1.2626750680e-01     5     3     3     5
 2.3720000000e-07     5     3     4     1
-1.5070000000e-07     5     3     4     2
-6.3759800000e-05     5     3     4     4
 4.1880000000e-06     5     3     4     5
-1.8800000000e-08     5     4     1     1
-6.7700000000e-08     5     4     1     2
-1.0710000000e-07     5     4     1     3
 1.4128800000e-05     5     4     1     5
 2.2580000000e-07     5     4     2     1
-9.5500000000e-08     5     4     2     2
 5.4400000000e-08     5     4     2     3
-4.5164900000e-05     5     4     2     5
 1.3010000000e-07     5     4     3     1
-9.6300000000e-08     5     4     3     2
-7.0900000000e-08     5     4     3     3
 4.1880000000e-06     5     4     3     5
 2.0434140000e-04     5     4     4     1
-5.4353070000e-04     5     4     4     2
 6.3759800000e-05     5     4     4     3
-1.3518824920e-01     5     4     4     5
 9.3865026400e-02     5     5     1     1
-8.7324413800e-02     5     5     1     2
-4.4215191300e-02     5     5     1     3
-1.4128800000e-05     5     5     1     4
-8.7324413800e-02     5     5     2     1
 2.9069083900e-02     5     5     2     2
 4.2608404300e-02     5     5     2     3
 4.5164900000e-05     5     5     2     4
-4.4215191300e-02     5     5     3     1
 4.2608404300e-02     5     5     3     2
 1.2626750680e-01     5     5     3     3
-4.1880000000e-06     5     5     3     4
-1.4128800000e-05     5     5     4     1
 4.5164900000e-05     5     5     4     2
-4.1880000000e-06     5     5     4     3
 1.3518824920e-01     5     5     4     4
0.0 0 0 0 0
-3.0031358900e-02     1     1     2     2
 2.3634462200e-02     1     1     2     3
 2.8165400000e-05     1     1     2     4
 3.3334290000e-04     1     1     2     5
 2.3634462200e-02     1     1     3     2
 8.4993498900e-02     1     1     3     3
-1.4708000000e-06     1     1     3     4
-3.1674100000e-05     1     1     3     5
 2.8165400000e-05     1     1     4     2
-1.4708000000e-06     1     1     4     3
 9.3871042800e-02     1     1     4     4
-1.8800000000e-08     1     1     4     5
 3.3334290000e-04     1     1     5     2
-3.1674100000e-05     1     1     5     3
-1.8800000000e-08     1     1     5     4
 9.3865026400e-02     1     1     5     5
 3.0031358900e-02     1     2     2     1
 3.0555728000e-03     1     2     2     3
-2.4139200000e-05     1     2     2     4
-2.6676750000e-04     1     2     2     5
-2.3634462200e-02     1     2     3     1
-8.3334807200e-02     1     2     3     3
 1.6128000000e-06     1     2     3     4
 2.6460900000e-05     1     2     3     5
-2.8165400000e-05     1     2     4     1
 4.2678000000e-06     1     2     4     3
-8.7328500400e-02     1     2     4     4
 2.2580000000e-07     1     2     4     5
-3.3334290000e-04     1     2     5     1
 5.2784900000e-05     1     2     5     3
-6.7700000000e-08     1     2     5     4
-8.7324413800e-02     1     2     5     5
-2.3634462200e-02     1     3     2     1
-3.0555728000e-03     1     3     2     2
-2.6550000000e-06     1     3     2     4
-2.6324000000e-05     1     3     2     5
-8.4993498900e-02     1     3     3     1
 8.3334807200e-02     1     3     3     2
 1.4304600000e-05     1     3     3     4
 2.0423500000e-04     1     3     3     5
 1.4708000000e-06     1     3     4     1
-4.2678000000e-06     1     3     4     2
-4.4216297000e-02     1     3     4     4
 1.3010000000e-07     1     3     4     5
 3.1674100000e-05     1     3     5     1
-5.2784900000e-05     1     3     5     2
-1.0710000000e-07     1     3     5     4
-4.4215191300e-02     1     3     5     5
-2.8165400000e-05     1     4     2     1
 2.4139200000e-05     1     4     2     2
 2.6550000000e-06     1     4     2     3
 2.9350000000e-07     1     4     2     5
 1.4708000000e-06     1     4     3     1
-1.6128000000e-06     1     4     3     2
-1.4304600000e-05     1     4     3     3
 2.3720000000e-07     1     4     3     5
-9.3871042800e-02     1     4     4     1
 8.7328500400e-02     1     4     4     2
 4.4216297000e-02     1     4     4     3
 2.0434140000e-04     1     4     4     5
 1.8800000000e-08     1     4     5     1
 6.7700000000e-08     1     4     5     2
 1.0710000000e-07     1     4     5     3
-1.4128800000e-05     1     4     5     5
-3.3334290000e-04     1     5     2     1
 2.6676750000e-04     1     5     2     2
 2.6324000000e-05     1     5     2     3
-2.9350000000e-07     1     5     2     4
 3.1674100000e-05     1     5     3     1
-2.6460900000e-05     1     5     3     2
-2.0423500000e-04     1     5     3     3
-2.3720000000e-07     1     5     3     4
 1.8800000000e-08     1     5     4     1
-2.2580000000e-07     1     5     4     2
-1.3010000000e-07     1     5     4     3
-2.0434140000e-04     1     5     4     4
-9.3865026400e-02     1     5     5     1
 8.7324413800e-02     1     5     5     2
 4.4215191300e-02     1     5     5     3
 1.4128800000e-05     1     5     5     4
 3.0031358900e-02     2     1     1     2
-2.3634462200e-02     2     1     1     3
-2.8165400000e-05     2     1     1     4
-3.3334290000e-04     2     1     1     5
 3.0555728000e-03     2     1     3     2
-8.3334807200e-02     2     1     3     3
 4.2678000000e-06     2     1     3     4
 5.2784900000e-05     2     1     3     5
-2.4139200000e-05     2     1     4     2
 1.6128000000e-06     2     1     4     3
-8.7328500400e-02     2     1     4     4
-6.7700000000e-08     2     1     4     5
-2.6676750000e-04     2     1     5     2
 2.6460900000e-05     2     1     5     3
 2.2580000000e-07     2     1     5     4
-8.7324413800e-02     2     1     5     5
-3.0031358900e-02     2     2     1     1
-3.0555728000e-03     2     2     1     3
 2.4139200000e-05     2     2     1     4
 2.6676750000e-04     2     2     1     5
-3.0555728000e-03     2     2     3     1
 1.2857646000e-02     2     2     3     3
-1.2988700000e-05     2     2     3     4
-1.6332560000e-04     2     2     3     5
 2.4139200000e-05     2     2     4     1
-1.2988700000e-05     2     2     4     3
 2.9072815700e-02     2     2     4     4
-9.5500000000e-08     2     2     4     5
 2.6676750000e-04     2     2     5     1
-1.6332560000e-04     2     2     5     3
-9.5500000000e-08     2     2     5     4
 2.9069083900e-02     2     2     5     5
 2.3634462200e-02     2     3     1     1
 3.0555728000e-03     2     3     1     2
 2.6550000000e-06     2     3     1     4
 2.6324000000e-05     2     3     1     5
 8.3334807200e-02     2     3     3     1
-1.2857646000e-02     2     3     3     2
-4.3665700000e-05     2     3     3     4
-5.2915830000e-04     2     3     3     5
-1.6128000000e-06     2     3     4     1
 1.2988700000e-05     2     3     4     2
 4.2610464600e-02     2     3     4     4
-9.6300000000e-08     2     3     4     5
-2.6460900000e-05     2     3     5     1
 1.6332560000e-04     2     3     5     2
 5.4400000000e-08     2     3     5     4
 4.2608404300e-02     2     3     5     5
 2.8165400000e-05     2     4     1     1
-2.4139200000e-05     2     4     1     2
-2.6550000000e-06     2     4     1     3
-2.9350000000e-07     2     4     1     5
-4.2678000000e-06     2     4     3     1
 1.2988700000e-05     2     4     3     2
 4.3665700000e-05     2     4     3     3
-1.5070000000e-07     2     4     3     5
 8.7328500400e-02     2     4     4     1
-2.9072815700e-02     2     4     4     2
-4.2610464600e-02     2     4     4     3
-5.4353070000e-04     2     4     4     5
-2.2580000000e-07     2     4     5     1
 9.5500000000e-08     2     4     5     2
-5.4400000000e-08     2     4     5     3
 4.5164900000e-05     2     4     5     5
 3.3334290000e-04     2     5     1     1
-2.6676750000e-04     2     5     1     2
-2.6324000000e-05     2     5     1     3
 2.9350000000e-07     2     5     1     4
-5.2784900000e-05     2     5     3     1
 1.6332560000e-04     2     5     3     2
 5.2915830000e-04     2     5     3     3
 1.5070000000e-07     2     5     3     4
 6.7700000000e-08     2     5     4     1
 9.5500000000e-08     2     5     4     2
 9.6300000000e-08     2     5     4     3
 5.4353070000e-04     2     5     4     4
 8.7324413800e-02     2     5     5     1
-2.9069083900e-02     2     5     5     2
-4.2608404300e-02     2     5     5     3
-4.5164900000e-05     2     5     5     4
-2.3634462200e-02     3     1     1     2
-8.4993498900e-02     3     1     1     3
 1.4708000000e-06     3     1     1     4
 3.1674100000e-05     3     1     1     5
-3.0555728000e-03     3     1     2     2
 8.3334807200e-02     3     1     2     3
-4.2678000000e-06     3     1     2     4
-5.2784900000e-05     3     1     2     5
-2.6550000000e-06     3     1     4     2
 1.4304600000e-05     3     1     4     3
-4.4216297000e-02     3     1     4     4
-1.0710000000e-07     3     1     4     5
-2.6324000000e-05     3     1     5     2
 2.0423500000e-04     3     1     5     3
 1.3010000000e-07     3     1     5     4
-4.4215191300e-02     3     1     5     5
 2.3634462200e-02     3     2     1     1
 8.3334807200e-02     3     2     1     3
-1.6128000000e-06     3     2     1     4
-2.6460900000e-05     3     2     1     5
 3.0555728000e-03     3     2     2     1
-1.2857646000e-02     3     2     2     3
 1.2988700000e-05     3     2     2     4
 1.6332560000e-04     3     2     2     5
 2.6550000000e-06     3     2     4     1
-4.3665700000e-05     3     2     4     3
 4.2610464600e-02     3     2     4     4
 5.4400000000e-08     3     2     4     5
 2.6324000000e-05     3     2     5     1
-5.2915830000e-04     3     2     5     3
-9.6300000000e-08     3     2     5     4
 4.2608404300e-02     3     2     5     5
 8.4993498900e-02     3     3     1     1
-8.3334807200e-02     3     3     1     2
-1.4304600000e-05     3     3     1     4
-2.0423500000e-04     3     3     1     5
-8.3334807200e-02     3     3     2     1
 1.2857646000e-02     3     3     2     2
 4.3665700000e-05     3     3     2     4
 5.2915830000e-04     3     3     2     5
-1.4304600000e-05     3     3     4     1
 4.3665700000e-05     3     3     4     2
 1.2627524030e-01     3     3     4     4
-7.0900000000e-08     3     3     4     5
-2.0423500000e-04     3     3     5     1
 5.2915830000e-04     3     3     5     2
-7.0900000000e-08     3     3     5     4
 1.2626750680e-01     3     3     5     5
-1.4708000000e-06     3     4     1     1
 1.6128000000e-06     3     4     1     2
 1.4304600000e-05     3     4     1     3
-2.3720000000e-07     3     4     1     5
 4.2678000000e-06     3     4     2     1
-1.2988700000e-05     3     4     2     2
-4.3665700000e-05     3     4     2     3
 1.5070000000e-07     3     4     2     5
 4.4216297000e-02     3     4     4     1
-4.2610464600e-02     3     4     4     2
-1.2627524030e-01     3     4     4     3
 6.3759800000e-05     3     4     4     5
-1.3010000000e-07     3     4     5     1
 9.6300000000e-08     3     4     5     2
 7.0900000000e-08     3     4     5     3
-4.1880000000e-06     3     4     5     5
-3.1674100000e-05     3     5     1     1
 2.6460900000e-05     3     5     1     2
 2.0423500000e-04     3     5     1     3
 2.3720000000e-07     3     5     1     4
 5.2784900000e-05     3     5     2     1
-1.6332560000e-04     3     5     2     2
-5.2915830000e-04     3     5     2     3
-1.5070000000e-07     3     5     2     4
 1.0710000000e-07     3     5     4     1
-5.4400000000e-08     3     5     4     2
 7.0900000000e-08     3     5     4     3
-6.3759800000e-05     3     5     4     4
 4.4215191300e-02     3     5     5     1
-4.2608404300e-02     3     5     5     2
-1.2626750680e-01     3     5     5     3
 4.1880000000e-06     3     5     5     4
-2.8165400000e-05     4     1     1     2
 1.4708000000e-06     4     1     1     3
-9.3871042800e-02     4     1     1     4
 1.8800000000e-08     4     1     1     5
 2.4139200000e-05     4     1     2     2
-1.6128000000e-06     4     1     2     3
 8.7328500400e-02     4     1     2     4
 6.7700000000e-08     4     1     2     5
 2.6550000000e-06     4     1     3     2
-1.4304600000e-05     4     1     3     3
 4.4216297000e-02     4     1     3     4
 1.0710000000e-07     4     1     3     5
 2.9350000000e-07     4     1     5     2
 2.3720000000e-07     4     1     5     3
 2.0434140000e-04     4     1     5     4
-1.4128800000e-05     4     1     5     5
 2.8165400000e-05     4     2     1     1
-4.2678000000e-06     4     2     1     3
 8.7328500400e-02     4     2     1     4
-2.2580000000e-07     4     2     1     5
-2.4139200000e-05     4     2     2     1
 1.2988700000e-05     4     2     2     3
-2.9072815700e-02     4     2     2     4
 9.5500000000e-08     4     2     2     5
-2.6550000000e-06     4     2     3     1
 4.3665700000e-05     4     2     3     3
-4.2610464600e-02     4     2     3     4
-5.4400000000e-08     4     2     3     5
-2.9350000000e-07     4     2     5     1
-1.5070000000e-07     4     2     5     3
-5.4353070000e-04     4     2     5     4
 4.5164900000e-05     4     2     5     5
-1.4708000000e-06     4     3     1     1
 4.2678000000e-06     4     3     1     2
 4.4216297000e-02     4     3     1     4
-1.3010000000e-07     4     3     1     5
 1.6128000000e-06     4     3     2     1
-1.2988700000e-05     4     3     2     2
-4.2610464600e-02     4     3     2     4
 9.6300000000e-08     4     3     2     5
 1.4304600000e-05     4     3     3     1
-4.3665700000e-05     4     3     3     2
-1.2627524030e-01     4     3     3     4
 7.0900000000e-08     4     3     3     5
-2.3720000000e-07     4     3     5     1
 1.5070000000e-07     4     3     5     2
 6.3759800000e-05     4     3     5     4
-4.1880000000e-06     4     3     5     5
 9.3871042800e-02     4     4     1     1
-8.7328500400e-02     4     4     1     2
-4.4216297000e-02     4     4     1     3
-2.0434140000e-04     4     4     1     5
-8.7328500400e-02     4     4     2     1
 2.9072815700e-02     4     4     2     2
 4.2610464600e-02     4     4     2     3
 5.4353070000e-04     4     4     2     5
-4.4216297000e-02     4     4     3     1
 4.2610464600e-02     4     4     3     2
 1.2627524030e-01     4     4     3     3
-6.3759800000e-05     4     4     3     5
-2.0434140000e-04     4     4     5     1
 5.4353070000e-04     4     4     5     2
-6.3759800000e-05     4     4     5     3
 1.3518824920e-01     4     4     5     5
-1.8800000000e-08     4     5     1     1
 2.2580000000e-07     4     5     1     2
 1.3010000000e-07     4     5     1     3
 2.0434140000e-04     4     5     1     4
-6.7700000000e-08     4     5     2     1
-9.5500000000e-08     4     5     2     2
-9.6300000000e-08     4     5     2     3
-5.4353070000e-04     4     5     2     4