&FCI NORB=  5,NELEC=  2,MS2=0,
 ORBSYM=1,1,1,1,1
 ISYM=1,
&END
 1.3670498460e-01     1     1     2     2
 1.0740000000e-06     1     1     2     3
-1.3460000000e-06     1     1     2     4
 2.8168623000e-03     1     1     2     5
 1.0740000000e-06     1     1     3     2
 1.7064256670e-01     1     1     3     3
-2.0800000000e-08     1     1     3     4
 1.5665400000e-05     1     1     3     5
-1.3460000000e-06     1     1     4     2
-2.0800000000e-08     1     1     4     3
 1.7063452820e-01     1     1     4     4
-2.0858600000e-05     1     1     4     5
 2.8168623000e-03     1     1     5     2
 1.5665400000e-05     1     1     5     3
-2.0858600000e-05     1     1     5     4
 2.0241622950e-01     1     1     5     5
-1.3670498460e-01     1     2     2     1
-4.6098000000e-06     1     2     2     3
 6.5219000000e-06     1     2     2     4
-5.1822967000e-03     1     2     2     5
-1.0740000000e-06     1     2     3     1
-1.0261357900e-01     1     2     3     3
 1.3630000000e-07     1     2     3     4
-4.2380000000e-07     1     2     3     5
 1.3460000000e-06     1     2     4     1
-1.3310000000e-07     1     2     4     3
-1.0261068580e-01     1     2     4     4
 4.9890000000e-07     1     2     4     5
-2.8168623000e-03     1     2     5     1
-1.1886000000e-06     1     2     5     3
 1.5132000000e-06     1     2     5     4
-1.0918474070e-01     1     2     5     5
-1.0740000000e-06     1     3     2     1
 4.6098000000e-06     1     3     2     2
 2.6940000000e-07     1     3     2     4
 7.6480000000e-07     1     3     2     5
-1.7064256670e-01     1     3     3     1
 1.0261357900e-01     1     3     3     2
 5.5808000000e-06     1     3     3     4
-4.1923488000e-03     1     3     3     5
 2.0800000000e-08     1     3     4     1
 1.3310000000e-07     1     3     4     2
 3.8246000000e-06     1     3     4     4
-9.5000000000e-09     1     3     4     5
-1.5665400000e-05     1     3     5     1
 1.1886000000e-06     1     3     5     2
-1.1200000000e-08     1     3     5     4
 7.1449000000e-06     1     3     5     5
 1.3460000000e-06     1     4     2     1
-6.5219000000e-06     1     4     2     2
-2.6940000000e-07     1     4     2     3
-1.0143000000e-06     1     4     2     5
 2.0800000000e-08     1     4     3     1
-1.3630000000e-07     1     4     3     2
-5.5808000000e-06     1     4     3     3
 1.7000000000e-09     1     4     3     5
-1.7063452820e-01     1     4     4     1
 1.0261068580e-01     1     4     4     2
-3.8246000000e-06     1     4     4     3
-4.1928020000e-03     1     4     4     5
 2.0858600000e-05     1     4     5     1
-1.5132000000e-06     1     4     5     2
 1.1200000000e-08     1     4     5     3
-1.0135300000e-05     1     4     5     5
-2.8168623000e-03     1     5     2     1
 5.1822967000e-03     1     5     2     2
-7.6480000000e-07     1     5     2     3
 1.0143000000e-06     1     5     2     4
-1.5665400000e-05     1     5     3     1
 4.2380000000e-07     1     5     3     2
 4.1923488000e-03     1     5     3     3
-1.7000000000e-09     1     5     3     4
 2.0858600000e-05     1     5     4     1
-4.9890000000e-07     1     5     4     2
 9.5000000000e-09     1     5     4     3
 4.1928020000e-03     1     5     4     4
-2.0241622950e-01     1     5     5     1
 1.0918474070e-01     1     5     5     2
-7.1449000000e-06     1     5     5     3
 1.0135300000e-05     1     5     5     4
-1.3670498460e-01     2     1     1     2
-1.0740000000e-06     2     1     1     3
 1.3460000000e-06     2     1     1     4
-2.8168623000e-03     2     1     1     5
-4.6098000000e-06     2     1     3     2
-1.0261357900e-01     2     1     3     3
-1.3310000000e-07     2     1     3     4
-1.1886000000e-06     2     1     3     5
 6.5219000000e-06     2     1     4     2
 1.3630000000e-07     2     1     4     3
-1.0261068580e-01     2     1     4     4
 1.5132000000e-06     2     1     4     5
-5.1822967000e-03     2     1     5     2
-4.2380000000e-07     2     1     5     3
 4.9890000000e-07     2     1     5     4
-1.0918474070e-01     2     1     5     5
 1.3670498460e-01     2     2     1     1
 4.6098000000e-06     2     2     1     3
-6.5219000000e-06     2     2     1     4
 5.1822967000e-03     2     2     1     5
 4.6098000000e-06     2     2     3     1
 1.7699411820e-01     2     2     3     3
-1.5200000000e-08     2     2     3     4
 1.0212400000e-05     2     2     3     5
-6.5219000000e-06     2     2     4     1
-1.5200000000e-08     2     2     4     3
 1.7698521420e-01     2     2     4     4
-1.3534100000e-05     2     2     4     5
 5.1822967000e-03     2     2     5     1
 1.0212400000e-05     2     2     5     3
-1.3534100000e-05     2     2     5     4
 2.0337726750e-01     2     2     5     5
 1.0740000000e-06     2     3     1     1
-4.6098000000e-06     2     3     1     2
-2.6940000000e-07     2     3     1     4
-7.6480000000e-07     2     3     1     5
 1.0261357900e-01     2     3     3     1
-1.7699411820e-01     2     3     3     2
-1.5107000000e-06     2     3     3     4
-2.3083170000e-04     2     3     3     5
-1.3630000000e-07     2     3     4     1
 1.5200000000e-08     2     3     4     2
-1.0107000000e-06     2     3     4     4
-1.6900000000e-08     2     3     4     5
 4.2380000000e-07     2     3     5     1
-1.0212400000e-05     2     3     5     2
-4.0400000000e-08     2     3     5     4
-2.2511000000e-06     2     3     5     5
-1.3460000000e-06     2     4     1     1
 6.5219000000e-06     2     4     1     2
 2.6940000000e-07     2     4     1     3
 1.0143000000e-06     2     4     1     5
 1.3310000000e-07     2     4     3     1
 1.5200000000e-08     2     4     3     2
 1.5107000000e-06     2     4     3     3
 2.3500000000e-08     2     4     3     5
 1.0261068580e-01     2     4     4     1
-1.7698521420e-01     2     4     4     2
 1.0107000000e-06     2     4     4     3
-2.3034330000e-04     2     4     4     5
-4.9890000000e-07     2     4     5     1
 1.3534100000e-05     2     4     5     2
 4.0400000000e-08     2     4     5     3
 3.2584000000e-06     2     4     5     5
 2.8168623000e-03     2     5     1     1
-5.1822967000e-03     2     5     1     2
 7.6480000000e-07     2     5     1     3
-1.0143000000e-06     2     5     1     4
 1.1886000000e-06     2     5     3     1
-1.0212400000e-05     2     5     3     2
 2.3083170000e-04     2     5     3     3
-2.3500000000e-08     2     5     3     4
-1.5132000000e-06     2     5     4     1
 1.3534100000e-05     2     5     4     2
 1.6900000000e-08     2     5     4     3
 2.3034330000e-04     2     5     4     4
 1.0918474070e-01     2     5     5     1
-2.0337726750e-01     2     5     5     2
 2.2511000000e-06     2     5     5     3
-3.2584000000e-06     2     5     5     4
-1.0740000000e-06     3     1     1     2
-1.7064256670e-01     3     1     1     3
 2.0800000000e-08     3     1     1     4
-1.5665400000e-05     3     1     1     5
 4.6098000000e-06     3     1     2     2
 1.0261357900e-01     3     1     2     3
 1.3310000000e-07     3     1     2     4
 1.1886000000e-06     3     1     2     5
 2.6940000000e-07     3     1     4     2
 5.5808000000e-06     3     1     4     3
 3.8246000000e-06     3     1     4     4
-1.1200000000e-08     3     1     4     5
 7.6480000000e-07     3     1     5     2
-4.1923488000e-03     3     1     5     3
-9.5000000000e-09     3     1     5     4
 7.1449000000e-06     3     1     5     5
 1.0740000000e-06     3     2     1     1
 1.0261357900e-01     3     2     1     3
-1.3630000000e-07     3     2     1     4
 4.2380000000e-07     3     2     1     5
-4.6098000000e-06     3     2     2     1
-1.7699411820e-01     3     2     2     3
 1.5200000000e-08     3     2     2     4
-1.0212400000e-05     3     2     2     5
-2.6940000000e-07     3     2     4     1
-1.5107000000e-06     3     2     4     3
-1.0107000000e-06     3     2     4     4
-4.0400000000e-08     3     2     4     5
-7.6480000000e-07     3     2     5     1
-2.3083170000e-04     3     2     5     3
-1.6900000000e-08     3     2     5     4
-2.2511000000e-06     3     2     5     5
 1.7064256670e-01     3     3     1     1
-1.0261357900e-01     3     3     1     2
-5.5808000000e-06     3     3     1     4
 4.1923488000e-03     3     3     1     5
-1.0261357900e-01     3     3     2     1
 1.7699411820e-01     3     3     2     2
 1.5107000000e-06     3     3     2     4
 2.3083170000e-04     3     3     2     5
-5.5808000000e-06     3     3     4     1
 1.5107000000e-06     3     3     4     2
 1.9484585030e-01     3     3     4     4
-1.1440300000e-05     3     3     4     5
 4.1923488000e-03     3     3     5     1
 2.3083170000e-04     3     3     5     2
-1.1440300000e-05     3     3     5     4
 2.1834540430e-01     3     3     5     5
-2.0800000000e-08     3     4     1     1
 1.3630000000e-07     3     4     1     2
 5.5808000000e-06     3     4     1     3
-1.7000000000e-09     3     4     1     5
-1.3310000000e-07     3     4     2     1
-1.5200000000e-08     3     4     2     2
-1.5107000000e-06     3     4     2     3
-2.3500000000e-08     3     4     2     5
-3.8246000000e-06     3     4     4     1
 1.0107000000e-06     3     4     4     2
-1.9484585030e-01     3     4     4     3
-8.6448000000e-06     3     4     4     5
 9.5000000000e-09     3     4     5     1
 1.6900000000e-08     3     4     5     2
 1.1440300000e-05     3     4     5     3
-1.5100000000e-08     3     4     5     5
 1.5665400000e-05     3     5     1     1
-4.2380000000e-07     3     5     1     2
-4.1923488000e-03     3     5     1     3
 1.7000000000e-09     3     5     1     4
-1.1886000000e-06     3     5     2     1
 1.0212400000e-05     3     5     2     2
-2.3083170000e-04     3     5     2     3
 2.3500000000e-08     3     5     2     4
 1.1200000000e-08     3     5     4     1
 4.0400000000e-08     3     5     4     2
 1.1440300000e-05     3     5     4     3
 8.6448000000e-06     3     5     4     4
-7.1449000000e-06     3     5     5     1
 2.2511000000e-06     3     5     5     2
-2.1834540430e-01     3     5     5     3
 1.5100000000e-08     3     5     5     4
 1.3460000000e-06     4     1     1     2
 2.0800000000e-08     4     1     1     3
-1.7063452820e-01     4     1     1     4
 2.0858600000e-05     4     1     1     5
-6.5219000000e-06     4     1     2     2
-1.3630000000e-07     4     1     2     3
 1.0261068580e-01     4     1     2     4
-1.5132000000e-06     4     1     2     5
-2.6940000000e-07     4     1     3     2
-5.5808000000e-06     4     1     3     3
-3.8246000000e-06     4     1     3     4
 1.1200000000e-08     4     1     3     5
-1.0143000000e-06     4     1     5     2
 1.7000000000e-09     4     1     5     3
-4.1928020000e-03     4     1     5     4
-1.0135300000e-05     4     1     5     5
-1.3460000000e-06     4     2     1     1
 1.3310000000e-07     4     2     1     3
 1.0261068580e-01     4     2     1     4
-4.9890000000e-07     4     2     1     5
 6.5219000000e-06     4     2     2     1
 1.5200000000e-08     4     2     2     3
-1.7698521420e-01     4     2     2     4
 1.3534100000e-05     4     2     2     5
 2.6940000000e-07     4     2     3     1
 1.5107000000e-06     4     2     3     3
 1.0107000000e-06     4     2     3     4
 4.0400000000e-08     4     2     3     5
 1.0143000000e-06     4     2     5     1
 2.3500000000e-08     4     2     5     3
-2.3034330000e-04     4     2     5     4
 3.2584000000e-06     4     2     5     5
-2.0800000000e-08     4     3     1     1
-1.3310000000e-07     4     3     1     2
-3.8246000000e-06     4     3     1     4
 9.5000000000e-09     4     3     1     5
 1.3630000000e-07     4     3     2     1
-1.5200000000e-08     4     3     2     2
 1.0107000000e-06     4     3     2     4
 1.6900000000e-08     4     3     2     5
 5.5808000000e-06     4     3     3     1
-1.5107000000e-06     4     3     3     2
-1.9484585030e-01     4     3     3     4
 1.1440300000e-05     4     3     3     5
-1.7000000000e-09     4     3     5     1
-2.3500000000e-08     4     3     5     2
-8.6448000000e-06     4     3     5     4
-1.5100000000e-08     4     3     5     5
 1.7063452820e-01     4     4     1     1
-1.0261068580e-01     4     4     1     2
 3.8246000000e-06     4     4     1     3
 4.1928020000e-03     4     4     1     5
-1.0261068580e-01     4     4     2     1
 1.7698521420e-01     4     4     2     2
-1.0107000000e-06     4     4     2     3
 2.3034330000e-04     4     4     2     5
 3.8246000000e-06     4     4     3     1
-1.0107000000e-06     4     4     3     2
 1.9484585030e-01     4     4     3     3
 8.6448000000e-06     4     4     3     5
 4.1928020000e-03     4     4     5     1
 2.3034330000e-04     4     4     5     2
 8.6448000000e-06     4     4     5     3
 2.1833628230e-01     4     4     5     5
-2.0858600000e-05     4     5     1     1
 4.9890000000e-07     4     5     1     2
-9.5000000000e-09     4     5     1     3
-4.1928020000e-03     4     5     1     4
 1.5132000000e-06     4     5     2     1
-1.3534100000e-05     4     5     2     2
-1.6900000000e-08     4     5     2     3
-2.3034330000e-04     4     5     2     4
-1.1200000000e-08     4     5     3     1
-4.0400000000e-08     4     5     3     2
-1.1440300000e-05     4     5     3     3
-8.6448000000e-06     4     5     3     4
 1.0135300000e-05     4     5     5     1
-3.2584000000e-06     4     5     5     2
 1.5100000000e-08     4     5     5     3
-2.1833628230e-01     4     5     5     4
-2.8168623000e-03     5     1     1     2
-1.5665400000e-05     5     1     1     3
 2.0858600000e-05     5     1     1     4
-2.0241622950e-01     5     1     1     5
 5.1822967000e-03     5     1     2     2
 4.2380000000e-07     5     1     2     3
-4.9890000000e-07     5     1     2     4
 1.0918474070e-01     5     1     2     5
-7.6480000000e-07     5     1     3     2
 4.1923488000e-03     5     1     3     3
 9.5000000000e-09     5     1     3     4
-7.1449000000e-06     5     1     3     5
 1.0143000000e-06     5     1     4     2
-1.7000000000e-09     5     1     4     3
 4.1928020000e-03     5     1     4     4
 1.0135300000e-05     5     1     4     5
 2.8168623000e-03     5     2     1     1
 1.1886000000e-06     5     2     1     3
-1.5132000000e-06     5     2     1     4
 1.0918474070e-01     5     2     1     5
-5.1822967000e-03     5     2     2     1
-1.0212400000e-05     5     2     2     3
 1.3534100000e-05     5     2     2     4
-2.0337726750e-01     5     2     2     5
 7.6480000000e-07     5     2     3     1
 2.3083170000e-04     5     2     3     3
 1.6900000000e-08     5     2     3     4
 2.2511000000e-06     5     2     3     5
-1.0143000000e-06     5     2     4     1
-2.3500000000e-08     5     2     4     3
 2.3034330000e-04     5     2     4     4
-3.2584000000e-06     5     2     4     5
 1.5665400000e-05     5     3     1     1
-1.1886000000e-06     5     3     1     2
 1.1200000000e-08     5     3     1     4
-7.1449000000e-06     5     3     1     5
-4.2380000000e-07     5     3     2     1
 1.0212400000e-05     5     3     2     2
 4.0400000000e-08     5     3     2     4
 2.2511000000e-06     5     3     2     5
-4.1923488000e-03     5     3     3     1
-2.3083170000e-04     5     3     3     2
 1.1440300000e-05     5     3     3     4
-2.1834540430e-01     5     3     3     5
 1.7000000000e-09     5     3     4     1
 2.3500000000e-08     5     3     4     2
 8.6448000000e-06     5     3     4     4
 1.5100000000e-08     5     3     4     5
-2.0858600000e-05     5     4     1     1
 1.5132000000e-06     5     4     1     2
-1.1200000000e-08     5     4     1     3
 1.0135300000e-05     5     4     1     5
 4.9890000000e-07     5     4     2     1
-1.3534100000e-05     5     4     2     2
-4.0400000000e-08     5     4     2     3
-3.2584000000e-06     5     4     2     5
-9.5000000000e-09     5     4     3     1
-1.6900000000e-08     5     4     3     2
-1.1440300000e-05     5     4     3     3
 1.5100000000e-08     5     4     3     5
-4.1928020000e-03     5     4     4     1
-2.3034330000e-04     5     4     4     2
-8.6448000000e-06     5     4     4     3
-2.1833628230e-01     5     4     4     5
 2.0241622950e-01     5     5     1     1
-1.0918474070e-01     5     5     1     2
 7.1449000000e-06     5     5     1     3
-1.0135300000e-05     5     5     1     4
-1.0918474070e-01     5     5     2     1
 2.0337726750e-01     5     5     2     2
-2.2511000000e-06     5     5     2     3
 3.2584000000e-06     5     5     2     4
 7.1449000000e-06     5     5     3     1
-2.2511000000e-06     5     5     3     2
 2.1834540430e-01     5     5     3     3
-1.5100000000e-08     5     5     3     4
-1.0135300000e-05     5     5     4     1
 3.2584000000e-06     5     5     4     2
-1.5100000000e-08     5     5     4     3
 2.1833628230e-01     5     5     4     4
0.0 0 0 0 0
 1.3670498460e-01     1     1     2     2
 1.0740000000e-06     1     1     2     3
-1.3460000000e-06     1     1     2     4
 2.8168623000e-03     1     1     2     5
 1.0740000000e-06     1     1     3     2
 1.7064256670e-01     1     1     3     3
-2.0800000000e-08     1     1     3     4
 1.5665400000e-05     1     1     3     5
-1.3460000000e-06     1     1     4     2
-2.0800000000e-08     1     1     4     3
 1.7063452820e-01     1     1     4     4
-2.0858600000e-05     1     1     4     5
 2.8168623000e-03     1     1     5     2
 1.5665400000e-05     1     1     5     3
-2.0858600000e-05     1     1     5     4
 2.0241622950e-01     1     1     5     5
-1.3670498460e-01     1     2     2     1
-4.6098000000e-06     1     2     2     3
 6.5219000000e-06     1     2     2     4
-5.1822967000e-03     1     2     2     5
-1.0740000000e-06     1     2     3     1
-1.0261357900e-01     1     2     3     3
 1.3630000000e-07     1     2     3     4
-4.2380000000e-07     1     2     3     5
 1.3460000000e-06     1     2     4     1
-1.3310000000e-07     1     2     4     3
-1.0261068580e-01     1     2     4     4
 4.9890000000e-07     1     2     4     5
-2.8168623000e-03     1     2     5     1
-1.1886000000e-06     1     2     5     3
 1.5132000000e-06     1     2     5     4
-1.0918474070e-01     1     2     5     5
-1.0740000000e-06     1     3     2     1
 4.6098000000e-06     1     3     2     2
 2.6940000000e-07     1     3     2     4
 7.6480000000e-07     1     3     2     5
-1.7064256670e-01     1     3     3     1
 1.0261357900e-01     1     3     3     2
 5.5808000000e-06     1     3     3     4
-4.1923488000e-03     1     3     3     5
 2.0800000000e-08     1     3     4     1
 1.3310000000e-07     1     3     4     2
 3.8246000000e-06     1     3     4     4
-9.5000000000e-09     1     3     4     5
-1.5665400000e-05     1     3     5     1
 1.1886000000e-06     1     3     5     2
-1.1200000000e-08     1     3     5     4
 7.1449000000e-06     1     3     5     5
 1.3460000000e-06     1     4     2     1
-6.5219000000e-06     1     4     2     2
-2.6940000000e-07     1     4     2     3
-1.0143000000e-06     1     4     2     5
 2.0800000000e-08     1     4     3     1
-1.3630000000e-07     1     4     3     2
-5.5808000000e-06     1     4     3     3
 1.7000000000e-09     1     4     3     5
-1.7063452820e-01     1     4     4     1
 1.0261068580e-01     1     4     4     2
-3.8246000000e-06     1     4     4     3
-4.1928020000e-03     1     4     4     5
 2.0858600000e-05     1     4     5     1
-1.5132000000e-06     1     4     5     2
 1.1200000000e-08     1     4     5     3
-1.0135300000e-05     1     4     5     5
-2.8168623000e-03     1     5     2     1
 5.1822967000e-03     1     5     2     2
-7.6480000000e-07     1     5     2     3
 1.0143000000e-06     1     5     2     4
-1.5665400000e-05     1     5     3     1
 4.2380000000e-07     1     5     3     2
 4.1923488000e-03     1     5     3     3
-1.7000000000e-09     1     5     3     4
 2.0858600000e-05     1     5     4     1
-4.9890000000e-07     1     5     4     2
 9.5000000000e-09     1     5     4     3
 4.1928020000e-03     1     5     4     4
-2.0241622950e-01     1     5     5     1
 1.0918474070e-01     1     5     5     2
-7.1449000000e-06     1     5     5     3
 1.0135300000e-05     1     5     5     4
-1.3670498460e-01     2     1     1     2
-1.0740000000e-06     2     1     1     3
 1.3460000000e-06     2     1     1     4
-2.8168623000e-03     2     1     1     5
-4.6098000000e-06     2     1     3     2
-1.0261357900e-01     2     1     3     3
-1.3310000000e-07     2     1     3     4
-1.1886000000e-06     2     1     3     5
 6.5219000000e-06     2     1     4     2
 1.3630000000e-07     2     1     4     3
-1.0261068580e-01     2     1     4     4
 1.5132000000e-06     2     1     4     5
-5.1822967000e-03     2     1     5     2
-4.2380000000e-07     2     1     5     3
 4.9890000000e-07     2     1     5     4
-1.0918474070e-01     2     1     5     5
 1.3670498460e-01     2     2     1     1
 4.6098000000e-06     2     2     1     3
-6.5219000000e-06     2     2     1     4
 5.1822967000e-03     2     2     1     5
 4.6098000000e-06     2     2     3     1
 1.7699411820e-01     2     2     3     3
-1.5200000000e-08     2     2     3     4
 1.0212400000e-05     2     2     3     5
-6.5219000000e-06     2     2     4     1
-1.5200000000e-08     2     2     4     3
 1.7698521420e-01     2     2     4     4
-1.3534100000e-05     2     2     4     5
 5.1822967000e-03     2     2     5     1
 1.0212400000e-05     2     2     5     3
-1.3534100000e-05     2     2     5     4
 2.0337726750e-01     2     2     5     5
 1.0740000000e-06     2     3     1     1
-4.6098000000e-06     2     3     1     2
-2.6940000000e-07     2     3     1     4
-7.6480000000e-07     2     3     1     5
 1.0261357900e-01     2     3     3     1
-1.7699411820e-01     2     3     3     2
-1.5107000000e-06     2     3     3     4
-2.3083170000e-04     2     3     3     5
-1.3630000000e-07     2     3     4     1
 1.5200000000e-08     2     3     4     2
-1.0107000000e-06     2     3     4     4
-1.6900000000e-08     2     3     4     5
 4.2380000000e-07     2     3     5     1
-1.0212400000e-05     2     3     5     2
-4.0400000000e-08     2     3     5     4
-2.2511000000e-06     2     3     5     5
-1.3460000000e-06     2     4     1     1
 6.5219000000e-06     2     4     1     2
 2.6940000000e-07     2     4     1     3
 1.0143000000e-06     2     4     1     5
 1.3310000000e-07     2     4     3     1
 1.5200000000e-08     2     4     3     2
 1.5107000000e-06     2     4     3     3
 2.3500000000e-08     2     4     3     5
 1.0261068580e-01     2     4     4     1
-1.7698521420e-01     2     4     4     2
 1.0107000000e-06     2     4     4     3
-2.3034330000e-04     2     4     4     5
-4.9890000000e-07     2     4     5     1
 1.3534100000e-05     2     4     5     2
 4.0400000000e-08     2     4     5     3
 3.2584000000e-06     2     4     5     5
 2.8168623000e-03     2     5     1     1
-5.1822967000e-03     2     5     1     2
 7.6480000000e-07     2     5     1     3
-1.0143000000e-06     2     5     1     4
 1.1886000000e-06     2     5     3     1
-1.0212400000e-05     2     5     3     2
 2.3083170000e-04     2     5     3     3
-2.3500000000e-08     2     5     3     4
-1.5132000000e-06     2     5     4     1
 1.3534100000e-05     2     5     4     2
 1.6900000000e-08     2     5     4     3
 2.3034330000e-04     2     5     4     4
 1.0918474070e-01     2     5     5     1
-2.0337726750e-01     2     5     5     2
 2.2511000000e-06     2     5     5     3
-3.2584000000e-06     2     5     5     4
-1.0740000000e-06     3     1     1     2
-1.7064256670e-01     3     1     1     3
 2.0800000000e-08     3     1     1     4
-1.5665400000e-05     3     1     1     5
 4.6098000000e-06     3     1     2     2
 1.0261357900e-01     3     1     2     3
 1.3310000000e-07     3     1     2     4
 1.1886000000e-06     3     1     2     5
 2.6940000000e-07     3     1     4     2
 5.5808000000e-06     3     1     4     3
 3.8246000000e-06     3     1     4     4
-1.1200000000e-08     3     1     4     5
 7.6480000000e-07     3     1     5     2
-4.1923488000e-03     3     1     5     3
-9.5000000000e-09     3     1     5     4
 7.1449000000e-06     3     1     5     5
 1.0740000000e-06     3     2     1     1
 1.0261357900e-01     3     2     1     3
-1.3630000000e-07     3     2     1     4
 4.2380000000e-07     3     2     1     5
-4.6098000000e-06     3     2     2     1
-1.7699411820e-01     3     2     2     3
 1.5200000000e-08     3     2     2     4
-1.0212400000e-05     3     2     2     5
-2.6940000000e-07     3     2     4     1
-1.5107000000e-06     3     2     4     3
-1.0107000000e-06     3     2     4     4
-4.0400000000e-08     3     2     4     5
-7.6480000000e-07     3     2     5     1
-2.3083170000e-04     3     2     5     3
-1.6900000000e-08     3     2     5     4
-2.2511000000e-06     3     2     5     5
 1.7064256670e-01     3     3     1     1
-1.0261357900e-01     3     3     1     2
-5.5808000000e-06     3     3     1     4
 4.1923488000e-03     3     3     1     5
-1.0261357900e-01     3     3     2     1
 1.7699411820e-01     3     3     2     2
 1.5107000000e-06     3     3     2     4
 2.3083170000e-04     3     3     2     5
-5.5808000000e-06     3     3     4     1
 1.5107000000e-06     3     3     4     2
 1.9484585030e-01     3     3     4     4
-1.1440300000e-05     3     3     4     5
 4.1923488000e-03     3     3     5     1
 2.3083170000e-04     3     3     5     2
-1.1440300000e-05     3     3     5     4
 2.1834540430e-01     3     3     5     5
-2.0800000000e-08     3     4     1     1
 1.3630000000e-07     3     4     1     2
 5.5808000000e-06     3     4     1     3
-1.7000000000e-09     3     4     1     5
-1.3310000000e-07     3     4     2     1
-1.5200000000e-08     3     4     2     2
-1.5107000000e-06     3     4     2     3
-2.3500000000e-08     3     4     2     5
-3.8246000000e-06     3     4     4     1
 1.0107000000e-06     3     4     4     2
-1.9484585030e-01     3     4     4     3
-8.6448000000e-06     3     4     4     5
 9.5000000000e-09     3     4     5     1
 1.6900000000e-08     3     4     5     2
 1.1440300000e-05     3     4     5     3
-1.5100000000e-08     3     4     5     5
 1.5665400000e-05     3     5     1     1
-4.2380000000e-07     3     5     1     2
-4.1923488000e-03     3     5     1     3
 1.7000000000e-09     3     5     1     4
-1.1886000000e-06     3     5     2     1
 1.0212400000e-05     3     5     2     2
-2.3083170000e-04     3     5     2     3
 2.3500000000e-08     3     5     2     4
 1.1200000000e-08     3     5     4     1
 4.0400000000e-08     3     5     4     2
 1.1440300000e-05     3     5     4     3
 8.6448000000e-06     3     5     4     4
-7.1449000000e-06     3     5     5     1
 2.2511000000e-06     3     5     5     2
-2.1834540430e-01     3     5     5     3
 1.5100000000e-08     3     5     5     4
 1.3460000000e-06     4     1     1     2
 2.0800000000e-08     4     1     1     3
-1.7063452820e-01     4     1     1     4
 2.0858600000e-05     4     1     1     5
-6.5219000000e-06     4     1     2     2
-1.3630000000e-07     4     1     2     3
 1.0261068580e-01     4     1     2     4
-1.5132000000e-06     4     1     2     5
-2.6940000000e-07     4     1     3     2
-5.5808000000e-06     4     1     3     3
-3.8246000000e-06     4     1     3     4
 1.1200000000e-08     4     1     3     5
-1.0143000000e-06     4     1     5     2
 1.7000000000e-09     4     1     5     3
-4.1928020000e-03     4     1     5     4
-1.0135300000e-05     4     1     5     5
-1.3460000000e-06     4     2     1     1
 1.3310000000e-07     4     2     1     3
 1.0261068580e-01     4     2     1     4
-4.9890000000e-07     4     2     1     5
 6.5219000000e-06     4     2     2     1
 1.5200000000e-08     4     2     2     3
-1.7698521420e-01     4     2     2     4
 1.3534100000e-05     4     2     2     5
 2.6940000000e-07     4     2     3     1
 1.5107000000e-06     4     2     3     3
 1.0107000000e-06     4     2     3     4
 4.0400000000e-08     4     2     3     5
 1.0143000000e-06     4     2     5     1
 2.3500000000e-08     4     2     5     3
-2.3034330000e-04     4     2     5     4
 3.2584000000e-06     4     2     5     5
-2.0800000000e-08     4     3     1     1
-1.3310000000e-07     4     3     1     2
-3.8246000000e-06     4     3     1     4
 9.5000000000e-09     4     3     1     5
 1.3630000000e-07     4     3     2     1
-1.5200000000e-08     4     3     2     2
 1.0107000000e-06     4     3     2     4
 1.6900000000e-08     4     3     2     5
 5.5808000000e-06     4     3     3     1
-1.5107000000e-06     4     3     3     2
-1.9484585030e-01     4     3     3     4
 1.1440300000e-05     4     3     3     5
-1.7000000000e-09     4     3     5     1
-2.3500000000e-08     4     3     5     2
-8.6448000000e-06     4     3     5     4
-1.5100000000e-08     4     3     5     5
 1.7063452820e-01     4     4     1     1
-1.0261068580e-01     4     4     1     2
 3.8246000000e-06     4     4     1     3
 4.1928020000e-03     4     4     1     5
-1.0261068580e-01     4     4     2     1
 1.7698521420e-01     4     4     2     2
-1.0107000000e-06     4     4     2     3
 2.3034330000e-04     4     4     2     5
 3.8246000000e-06     4     4     3     1
-1.0107000000e-06     4     4     3     2
 1.9484585030e-01     4     4     3     3
 8.6448000000e-06     4     4     3     5
 4.1928020000e-03     4     4     5     1
 2.3034330000e-04     4     4     5     2
 8.6448000000e-06     4     4     5     3
 2.1833628230e-01     4     4     5     5
-2.0858600000e-05     4     5     1     1
 4.9890000000e-07     4     5     1     2
-9.5000000000e-09     4     5     1     3
-4.1928020000e-03     4     5     1     4
 1.5132000000e-06     4     5     2     1
-1.3534100000e-05     4     5     2     2
-1.6900000000e-08     4     5     2     3
-2.3034330000e-04     4     5     2     4