&FCI NORB=  5,NELEC=  2,MS2=0,
 ORBSYM=1,1,1,1,1
 ISYM=1,
&END
-4.7517732900e-02     1     1     2     2
-4.2044334000e-02     1     1     2     3
-1.7367658000e-02     1     1     2     4
 9.5983000000e-06     1     1     2     5
-4.2044334000e-02     1     1     3     2
 7.6230705200e-02     1     1     3     3
-2.9228798000e-03     1     1     3     4
 1.1548000000e-06     1     1     3     5
-1.7367658000e-02     1     1     4     2
-2.9228798000e-03     1     1     4     3
 8.8298247600e-02     1     1     4     4
 1.5989000000e-06     1     1     4     5
 9.5983000000e-06     1     1     5     2
 1.1548000000e-06     1     1     5     3
 1.5989000000e-06     1     1     5     4
 9.3308733400e-02     1     1     5     5
 4.7517732900e-02     1     2     2     1
-1.8745830100e-02     1     2     2     3
-2.4363918600e-02     1     2     2     4
 1.0969500000e-05     1     2     2     5
 4.2044334000e-02     1     2     3     1
 7.0517691700e-02     1     2     3     3
-8.6682570000e-03     1     2     3     4
 3.9560000000e-06     1     2     3     5
 1.7367658000e-02     1     2     4     1
-1.1579007000e-02     1     2     4     3
 8.1294800300e-02     1     2     4     4
 3.6324000000e-06     1     2     4     5
-9.5983000000e-06     1     2     5     1
 5.1819000000e-06     1     2     5     3
 3.4547000000e-06     1     2     5     4
 8.8038939500e-02     1     2     5     5
 4.2044334000e-02     1     3     2     1
 1.8745830100e-02     1     3     2     2
 2.9107500000e-03     1     3     2     4
-1.2259000000e-06     1     3     2     5
-7.6230705200e-02     1     3     3     1
-7.0517691700e-02     1     3     3     2
 2.6571203000e-03     1     3     3     4
-4.2671000000e-06     1     3     3     5
 2.9228798000e-03     1     3     4     1
 1.1579007000e-02     1     3     4     2
-5.4557859500e-02     1     3     4     4
-6.3420000000e-07     1     3     4     5
-1.1548000000e-06     1     3     5     1
-5.1819000000e-06     1     3     5     2
-7.1920000000e-07     1     3     5     4
-5.6852813700e-02     1     3     5     5
 1.7367658000e-02     1     4     2     1
 2.4363918600e-02     1     4     2     2
-2.9107500000e-03     1     4     2     3
 1.7770000000e-07     1     4     2     5
 2.9228798000e-03     1     4     3     1
 8.6682570000e-03     1     4     3     2
-2.6571203000e-03     1     4     3     3
 8.5000000000e-08     1     4     3     5
-8.8298247600e-02     1     4     4     1
-8.1294800300e-02     1     4     4     2
 5.4557859500e-02     1     4     4     3
-4.0682000000e-06     1     4     4     5
-1.5989000000e-06     1     4     5     1
-3.4547000000e-06     1     4     5     2
 7.1920000000e-07     1     4     5     3
-9.8877060000e-04     1     4     5     5
-9.5983000000e-06     1     5     2     1
-1.0969500000e-05     1     5     2     2
 1.2259000000e-06     1     5     2     3
-1.7770000000e-07     1     5     2     4
-1.1548000000e-06     1     5     3     1
-3.9560000000e-06     1     5     3     2
 4.2671000000e-06     1     5     3     3
-8.5000000000e-08     1     5     3     4
-1.5989000000e-06     1     5     4     1
-3.6324000000e-06     1     5     4     2
 6.3420000000e-07     1     5     4     3
 4.0682000000e-06     1     5     4     4
-9.3308733400e-02     1     5     5     1
-8.8038939500e-02     1     5     5     2
 5.6852813700e-02     1     5     5     3
 9.8877060000e-04     1     5     5     4
 4.7517732900e-02     2     1     1     2
 4.2044334000e-02     2     1     1     3
 1.7367658000e-02     2     1     1     4
-9.5983000000e-06     2     1     1     5
-1.8745830100e-02     2     1     3     2
 7.0517691700e-02     2     1     3     3
-1.1579007000e-02     2     1     3     4
 5.1819000000e-06     2     1     3     5
-2.4363918600e-02     2     1     4     2
-8.6682570000e-03     2     1     4     3
 8.1294800300e-02     2     1     4     4
 3.4547000000e-06     2     1     4     5
 1.0969500000e-05     2     1     5     2
 3.9560000000e-06     2     1     5     3
 3.6324000000e-06     2     1     5     4
 8.8038939500e-02     2     1     5     5
-4.7517732900e-02     2     2     1     1
 1.8745830100e-02     2     2     1     3
 2.4363918600e-02     2     2     1     4
-1.0969500000e-05     2     2     1     5
 1.8745830100e-02     2     2     3     1
-2.6918097700e-02     2     2     3     3
-8.4214320000e-03     2     2     3     4
 5.1307000000e-06     2     2     3     5
 2.4363918600e-02     2     2     4     1
-8.4214320000e-03     2     2     4     3
 8.7680085000e-03     2     2     4     4
-4.2000000000e-08     2     2     4     5
-1.0969500000e-05     2     2     5     1
 5.1307000000e-06     2     2     5     3
-4.2000000000e-08     2     2     5     4
 8.6867102000e-03     2     2     5     5
-4.2044334000e-02     2     3     1     1
-1.8745830100e-02     2     3     1     2
-2.9107500000e-03     2     3     1     4
 1.2259000000e-06     2     3     1     5
-7.0517691700e-02     2     3     3     1
 2.6918097700e-02     2     3     3     2
 3.2097404900e-02     2     3     3     4
-1.7331800000e-05     2     3     3     5
 8.6682570000e-03     2     3     4     1
 8.4214320000e-03     2     3     4     2
-7.4667900800e-02     2     3     4     4
-1.3504000000e-06     2     3     4     5
-3.9560000000e-06     2     3     5     1
-5.1307000000e-06     2     3     5     2
-1.6426000000e-06     2     3     5     4
-7.7721908400e-02     2     3     5     5
-1.7367658000e-02     2     4     1     1
-2.4363918600e-02     2     4     1     2
 2.9107500000e-03     2     4     1     3
-1.7770000000e-07     2     4     1     5
 1.1579007000e-02     2     4     3     1
 8.4214320000e-03     2     4     3     2
-3.2097404900e-02     2     4     3     3
 2.9220000000e-07     2     4     3     5
-8.1294800300e-02     2     4     4     1
-8.7680085000e-03     2     4     4     2
 7.4667900800e-02     2     4     4     3
-1.6816100000e-05     2     4     4     5
-3.6324000000e-06     2     4     5     1
 4.2000000000e-08     2     4     5     2
 1.6426000000e-06     2     4     5     3
-2.9755106100e-02     2     4     5     5
 9.5983000000e-06     2     5     1     1
 1.0969500000e-05     2     5     1     2
-1.2259000000e-06     2     5     1     3
 1.7770000000e-07     2     5     1     4
-5.1819000000e-06     2     5     3     1
-5.1307000000e-06     2     5     3     2
 1.7331800000e-05     2     5     3     3
-2.9220000000e-07     2     5     3     4
-3.4547000000e-06     2     5     4     1
 4.2000000000e-08     2     5     4     2
 1.3504000000e-06     2     5     4     3
 1.6816100000e-05     2     5     4     4
-8.8038939500e-02     2     5     5     1
-8.6867102000e-03     2     5     5     2
 7.7721908400e-02     2     5     5     3
 2.9755106100e-02     2     5     5     4
 4.2044334000e-02     3     1     1     2
-7.6230705200e-02     3     1     1     3
 2.9228798000e-03     3     1     1     4
-1.1548000000e-06     3     1     1     5
 1.8745830100e-02     3     1     2     2
-7.0517691700e-02     3     1     2     3
 1.1579007000e-02     3     1     2     4
-5.1819000000e-06     3     1     2     5
 2.9107500000e-03     3     1     4     2
 2.6571203000e-03     3     1     4     3
-5.4557859500e-02     3     1     4     4
-7.1920000000e-07     3     1     4     5
-1.2259000000e-06     3     1     5     2
-4.2671000000e-06     3     1     5     3
-6.3420000000e-07     3     1     5     4
-5.6852813700e-02     3     1     5     5
-4.2044334000e-02     3     2     1     1
-7.0517691700e-02     3     2     1     3
 8.6682570000e-03     3     2     1     4
-3.9560000000e-06     3     2     1     5
-1.8745830100e-02     3     2     2     1
 2.6918097700e-02     3     2     2     3
 8.4214320000e-03     3     2     2     4
-5.1307000000e-06     3     2     2     5
-2.9107500000e-03     3     2     4     1
 3.2097404900e-02     3     2     4     3
-7.4667900800e-02     3     2     4     4
-1.6426000000e-06     3     2     4     5
 1.2259000000e-06     3     2     5     1
-1.7331800000e-05     3     2     5     3
-1.3504000000e-06     3     2     5     4
-7.7721908400e-02     3     2     5     5
 7.6230705200e-02     3     3     1     1
 7.0517691700e-02     3     3     1     2
-2.6571203000e-03     3     3     1     4
 4.2671000000e-06     3     3     1     5
 7.0517691700e-02     3     3     2     1
-2.6918097700e-02     3     3     2     2
-3.2097404900e-02     3     3     2     4
 1.7331800000e-05     3     3     2     5
-2.6571203000e-03     3     3     4     1
-3.2097404900e-02     3     3     4     2
 1.0777892280e-01     3     3     4     4
 3.2807000000e-06     3     3     4     5
 4.2671000000e-06     3     3     5     1
 1.7331800000e-05     3     3     5     2
 3.2807000000e-06     3     3     5     4
 1.1610874720e-01     3     3     5     5
-2.9228798000e-03     3     4     1     1
-8.6682570000e-03     3     4     1     2
 2.6571203000e-03     3     4     1     3
-8.5000000000e-08     3     4     1     5
-1.1579007000e-02     3     4     2     1
-8.4214320000e-03     3     4     2     2
 3.2097404900e-02     3     4     2     3
-2.9220000000e-07     3     4     2     5
 5.4557859500e-02     3     4     4     1
 7.4667900800e-02     3     4     4     2
-1.0777892280e-01     3     4     4     3
-3.7283000000e-06     3     4     4     5
 6.3420000000e-07     3     4     5     1
 1.3504000000e-06     3     4     5     2
-3.2807000000e-06     3     4     5     3
-8.3255800000e-03     3     4     5     5
 1.1548000000e-06     3     5     1     1
 3.9560000000e-06     3     5     1     2
-4.2671000000e-06     3     5     1     3
 8.5000000000e-08     3     5     1     4
 5.1819000000e-06     3     5     2     1
 5.1307000000e-06     3     5     2     2
-1.7331800000e-05     3     5     2     3
 2.9220000000e-07     3     5     2     4
 7.1920000000e-07     3     5     4     1
 1.6426000000e-06     3     5     4     2
-3.2807000000e-06     3     5     4     3
 3.7283000000e-06     3     5     4     4
 5.6852813700e-02     3     5     5     1
 7.7721908400e-02     3     5     5     2
-1.1610874720e-01     3     5     5     3
 8.3255800000e-03     3     5     5     4
 1.7367658000e-02     4     1     1     2
 2.9228798000e-03     4     1     1     3
-8.8298247600e-02     4     1     1     4
-1.5989000000e-06     4     1     1     5
 2.4363918600e-02     4     1     2     2
 8.6682570000e-03     4     1     2     3
-8.1294800300e-02     4     1     2     4
-3.4547000000e-06     4     1     2     5
-2.9107500000e-03     4     1     3     2
-2.6571203000e-03     4     1     3     3
 5.4557859500e-02     4     1     3     4
 7.1920000000e-07     4     1     3     5
 1.7770000000e-07     4     1     5     2
 8.5000000000e-08     4     1     5     3
-4.0682000000e-06     4     1     5     4
-9.8877060000e-04     4     1     5     5
-1.7367658000e-02     4     2     1     1
 1.1579007000e-02     4     2     1     3
-8.1294800300e-02     4     2     1     4
-3.6324000000e-06     4     2     1     5
-2.4363918600e-02     4     2     2     1
 8.4214320000e-03     4     2     2     3
-8.7680085000e-03     4     2     2     4
 4.2000000000e-08     4     2     2     5
 2.9107500000e-03     4     2     3     1
-3.2097404900e-02     4     2     3     3
 7.4667900800e-02     4     2     3     4
 1.6426000000e-06     4     2     3     5
-1.7770000000e-07     4     2     5     1
 2.9220000000e-07     4     2     5     3
-1.6816100000e-05     4     2     5     4
-2.9755106100e-02     4     2     5     5
-2.9228798000e-03     4     3     1     1
-1.1579007000e-02     4     3     1     2
 5.4557859500e-02     4     3     1     4
 6.3420000000e-07     4     3     1     5
-8.6682570000e-03     4     3     2     1
-8.4214320000e-03     4     3     2     2
 7.4667900800e-02     4     3     2     4
 1.3504000000e-06     4     3     2     5
 2.6571203000e-03     4     3     3     1
 3.2097404900e-02     4     3     3     2
-1.0777892280e-01     4     3     3     4
-3.2807000000e-06     4     3     3     5
-8.5000000000e-08     4     3     5     1
-2.9220000000e-07     4     3     5     2
-3.7283000000e-06     4     3     5     4
-8.3255800000e-03     4     3     5     5
 8.8298247600e-02     4     4     1     1
 8.1294800300e-02     4     4     1     2
-5.4557859500e-02     4     4     1     3
 4.0682000000e-06     4     4     1     5
 8.1294800300e-02     4     4     2     1
 8.7680085000e-03     4     4     2     2
-7.4667900800e-02     4     4     2     3
 1.6816100000e-05     4     4     2     5
-5.4557859500e-02     4     4     3     1
-7.4667900800e-02     4     4     3     2
 1.0777892280e-01     4     4     3     3
 3.7283000000e-06     4     4     3     5
 4.0682000000e-06     4     4     5     1
 1.6816100000e-05     4     4     5     2
 3.7283000000e-06     4     4     5     3
 1.3000878490e-01     4     4     5     5
 1.5989000000e-06     4     5     1     1
 3.6324000000e-06     4     5     1     2
-6.3420000000e-07     4     5     1     3
-4.0682000000e-06     4     5     1     4
 3.4547000000e-06     4     5     2     1
-4.2000000000e-08     4     5     2     2
-1.3504000000e-06     4     5     2     3
-1.6816100000e-05     4     5     2     4
-7.1920000000e-07     4     5     3     1
-1.6426000000e-06     4     5     3     2
 3.2807000000e-06     4     5     3     3
-3.7283000000e-06     4     5     3     4
 9.8877060000e-04     4     5     5     1
 2.9755106100e-02     4     5     5     2
 8.3255800000e-03     4     5     5     3
-1.3000878490e-01     4     5     5     4
-9.5983000000e-06     5     1     1     2
-1.1548000000e-06     5     1     1     3
-1.5989000000e-06     5     1     1     4
-9.3308733400e-02     5     1     1     5
-1.0969500000e-05     5     1     2     2
-3.9560000000e-06     5     1     2     3
-3.6324000000e-06     5     1     2     4
-8.8038939500e-02     5     1     2     5
 1.2259000000e-06     5     1     3     2
 4.2671000000e-06     5     1     3     3
 6.3420000000e-07     5     1     3     4
 5.6852813700e-02     5     1     3     5
-1.7770000000e-07     5     1     4     2
-8.5000000000e-08     5     1     4     3
 4.0682000000e-06     5     1     4     4
 9.8877060000e-04     5     1     4     5
 9.5983000000e-06     5     2     1     1
-5.1819000000e-06     5     2     1     3
-3.4547000000e-06     5     2     1     4
-8.8038939500e-02     5     2     1     5
 1.0969500000e-05     5     2     2     1
-5.1307000000e-06     5     2     2     3
 4.2000000000e-08     5     2     2     4
-8.6867102000e-03     5     2     2     5
-1.2259000000e-06     5     2     3     1
 1.7331800000e-05     5     2     3     3
 1.3504000000e-06     5     2     3     4
 7.7721908400e-02     5     2     3     5
 1.7770000000e-07     5     2     4     1
-2.9220000000e-07     5     2     4     3
 1.6816100000e-05     5     2     4     4
 2.9755106100e-02     5     2     4     5
 1.1548000000e-06     5     3     1     1
 5.1819000000e-06     5     3     1     2
 7.1920000000e-07     5     3     1     4
 5.6852813700e-02     5     3     1     5
 3.9560000000e-06     5     3     2     1
 5.1307000000e-06     5     3     2     2
 1.6426000000e-06     5     3     2     4
 7.7721908400e-02     5     3     2     5
-4.2671000000e-06     5     3     3     1
-1.7331800000e-05     5     3     3     2
-3.2807000000e-06     5     3     3     4
-1.1610874720e-01     5     3     3     5
 8.5000000000e-08     5     3     4     1
 2.9220000000e-07     5     3     4     2
 3.7283000000e-06     5     3     4     4
 8.3255800000e-03     5     3     4     5
 1.5989000000e-06     5     4     1     1
 3.4547000000e-06     5     4     1     2
-7.1920000000e-07     5     4     1     3
 9.8877060000e-04     5     4     1     5
 3.6324000000e-06     5     4     2     1
-4.2000000000e-08     5     4     2     2
-1.6426000000e-06     5     4     2     3
 2.9755106100e-02     5     4     2     5
-6.3420000000e-07     5     4     3     1
-1.3504000000e-06     5     4     3     2
 3.2807000000e-06     5     4     3     3
 8.3255800000e-03     5     4     3     5
-4.0682000000e-06     5     4     4     1
-1.6816100000e-05     5     4     4     2
-3.7283000000e-06     5     4     4     3
-1.3000878490e-01     5     4     4     5
 9.3308733400e-02     5     5     1     1
 8.8038939500e-02     5     5     1     2
-5.6852813700e-02     5     5     1     3
-9.8877060000e-04     5     5     1     4
 8.8038939500e-02     5     5     2     1
 8.6867102000e-03     5     5     2     2
-7.7721908400e-02     5     5     2     3
-2.9755106100e-02     5     5     2     4
-5.6852813700e-02     5     5     3     1
-7.7721908400e-02     5     5     3     2
 1.1610874720e-01     5     5     3     3
-8.3255800000e-03     5     5     3     4
-9.8877060000e-04     5     5     4     1
-2.9755106100e-02     5     5     4     2
-8.3255800000e-03     5     5     4     3
 1.3000878490e-01     5     5     4     4
0.0 0 0 0 0
-4.7517732900e-02     1     1     2     2
-4.2044334000e-02     1     1     2     3
-1.7367658000e-02     1     1     2     4
 9.5983000000e-06     1     1     2     5
-4.2044334000e-02     1     1     3     2
 7.6230705200e-02     1     1     3     3
-2.9228798000e-03     1     1     3     4
 1.1548000000e-06     1     1     3     5
-1.7367658000e-02     1     1     4     2
-2.9228798000e-03     1     1     4     3
 8.8298247600e-02     1     1     4     4
 1.5989000000e-06     1     1     4     5
 9.5983000000e-06     1     1     5     2
 1.1548000000e-06     1     1     5     3
 1.5989000000e-06     1     1     5     4
 9.3308733400e-02     1     1     5     5
 4.7517732900e-02     1     2     2     1
-1.8745830100e-02     1     2     2     3
-2.4363918600e-02     1     2     2     4
 1.0969500000e-05     1     2     2     5
 4.2044334000e-02     1     2     3     1
 7.0517691700e-02     1     2     3     3
-8.6682570000e-03     1     2     3     4
 3.9560000000e-06     1     2     3     5
 1.7367658000e-02     1     2     4     1
-1.1579007000e-02     1     2     4     3
 8.1294800300e-02     1     2     4     4
 3.6324000000e-06     1     2     4     5
-9.5983000000e-06     1     2     5     1
 5.1819000000e-06     1     2     5     3
 3.4547000000e-06     1     2     5     4
 8.8038939500e-02     1     2     5     5
 4.2044334000e-02     1     3     2     1
 1.8745830100e-02     1     3     2     2
 2.9107500000e-03     1     3     2     4
-1.2259000000e-06     1     3     2     5
-7.6230705200e-02     1     3     3     1
-7.0517691700e-02     1     3     3     2
 2.6571203000e-03     1     3     3     4
-4.2671000000e-06     1     3     3     5
 2.9228798000e-03     1     3     4     1
 1.1579007000e-02     1     3     4     2
-5.4557859500e-02     1     3     4     4
-6.3420000000e-07     1     3     4     5
-1.1548000000e-06     1     3     5     1
-5.1819000000e-06     1     3     5     2
-7.1920000000e-07     1     3     5     4
-5.6852813700e-02     1     3     5     5
 1.7367658000e-02     1     4     2     1
 2.4363918600e-02     1     4     2     2
-2.9107500000e-03     1     4     2     3
 1.7770000000e-07     1     4     2     5
 2.9228798000e-03     1     4     3     1
 8.6682570000e-03     1     4     3     2
-2.6571203000e-03     1     4     3     3
 8.5000000000e-08     1     4     3     5
-8.8298247600e-02     1     4     4     1
-8.1294800300e-02     1     4     4     2
 5.4557859500e-02     1     4     4     3
-4.0682000000e-06     1     4     4     5
-1.5989000000e-06     1     4     5     1
-3.4547000000e-06     1     4     5     2
 7.1920000000e-07     1     4     5     3
-9.8877060000e-04     1     4     5     5
-9.5983000000e-06     1     5     2     1
-1.0969500000e-05     1     5     2     2
 1.2259000000e-06     1     5     2     3
-1.7770000000e-07     1     5     2     4
-1.1548000000e-06     1     5     3     1
-3.9560000000e-06     1     5     3     2
 4.2671000000e-06     1     5     3     3
-8.5000000000e-08     1     5     3     4
-1.5989000000e-06     1     5     4     1
-3.6324000000e-06     1     5     4     2
 6.3420000000e-07     1     5     4     3
 4.0682000000e-06     1     5     4     4
-9.3308733400e-02     1     5     5     1
-8.8038939500e-02     1     5     5     2
 5.6852813700e-02     1     5     5     3
 9.8877060000e-04     1     5     5     4
 4.7517732900e-02     2     1     1     2
 4.2044334000e-02     2     1     1     3
 1.7367658000e-02     2     1     1     4
-9.5983000000e-06     2     1     1     5
-1.8745830100e-02     2     1     3     2
 7.0517691700e-02     2     1     3     3
-1.1579007000e-02     2     1     3     4
 5.1819000000e-06     2     1     3     5
-2.4363918600e-02     2     1     4     2
-8.6682570000e-03     2     1     4     3
 8.1294800300e-02     2     1     4     4
 3.4547000000e-06     2     1     4     5
 1.0969500000e-05     2     1     5     2
 3.9560000000e-06     2     1     5     3
 3.6324000000e-06     2     1     5     4
 8.8038939500e-02     2     1     5     5
-4.7517732900e-02     2     2     1     1
 1.8745830100e-02     2     2     1     3
 2.4363918600e-02     2     2     1     4
-1.0969500000e-05     2     2     1     5
 1.8745830100e-02     2     2     3     1
-2.6918097700e-02     2     2     3     3
-8.4214320000e-03     2     2     3     4
 5.1307000000e-06     2     2     3     5
 2.4363918600e-02     2     2     4     1
-8.4214320000e-03     2     2     4     3
 8.7680085000e-03     2     2     4     4
-4.2000000000e-08     2     2     4     5
-1.0969500000e-05     2     2     5     1
 5.1307000000e-06     2     2     5     3
-4.2000000000e-08     2     2     5     4
 8.6867102000e-03     2     2     5     5
-4.2044334000e-02     2     3     1     1
-1.8745830100e-02     2     3     1     2
-2.9107500000e-03     2     3     1     4
 1.2259000000e-06     2     3     1     5
-7.0517691700e-02     2     3     3     1
 2.6918097700e-02     2     3     3     2
 3.2097404900e-02     2     3     3     4
-1.7331800000e-05     2     3     3     5
 8.6682570000e-03     2     3     4     1
 8.4214320000e-03     2     3     4     2
-7.4667900800e-02     2     3     4     4
-1.3504000000e-06     2     3     4     5
-3.9560000000e-06     2     3     5     1
-5.1307000000e-06     2     3     5     2
-1.6426000000e-06     2     3     5     4
-7.7721908400e-02     2     3     5     5
-1.7367658000e-02     2     4     1     1
-2.4363918600e-02     2     4     1     2
 2.9107500000e-03     2     4     1     3
-1.7770000000e-07     2     4     1     5
 1.1579007000e-02     2     4     3     1
 8.4214320000e-03     2     4     3     2
-3.2097404900e-02     2     4     3     3
 2.9220000000e-07     2     4     3     5
-8.1294800300e-02     2     4     4     1
-8.7680085000e-03     2     4     4     2
 7.4667900800e-02     2     4     4     3
-1.6816100000e-05     2     4     4     5
-3.6324000000e-06     2     4     5     1
 4.2000000000e-08     2     4     5     2
 1.6426000000e-06     2     4     5     3
-2.9755106100e-02     2     4     5     5
 9.5983000000e-06     2     5     1     1
 1.0969500000e-05     2     5     1     2
-1.2259000000e-06     2     5     1     3
 1.7770000000e-07     2     5     1     4
-5.1819000000e-06     2     5     3     1
-5.1307000000e-06     2     5     3     2
 1.7331800000e-05     2     5     3     3
-2.9220000000e-07     2     5     3     4
-3.4547000000e-06     2     5     4     1
 4.2000000000e-08     2     5     4     2
 1.3504000000e-06     2     5     4     3
 1.6816100000e-05     2     5     4     4
-8.8038939500e-02     2     5     5     1
-8.6867102000e-03     2     5     5     2
 7.7721908400e-02     2     5     5     3
 2.9755106100e-02     2     5     5     4
 4.2044334000e-02     3     1     1     2
-7.6230705200e-02     3     1     1     3
 2.9228798000e-03     3     1     1     4
-1.1548000000e-06     3     1     1     5
 1.8745830100e-02     3     1     2     2
-7.0517691700e-02     3     1     2     3
 1.1579007000e-02     3     1     2     4
-5.1819000000e-06     3     1     2     5
 2.9107500000e-03     3     1     4     2
 2.6571203000e-03     3     1     4     3
-5.4557859500e-02     3     1     4     4
-7.1920000000e-07     3     1     4     5
-1.2259000000e-06     3     1     5     2
-4.2671000000e-06     3     1     5     3
-6.3420000000e-07     3     1     5     4
-5.6852813700e-02     3     1     5     5
-4.2044334000e-02     3     2     1     1
-7.0517691700e-02     3     2     1     3
 8.6682570000e-03     3     2     1     4
-3.9560000000e-06     3     2     1     5
-1.8745830100e-02     3     2     2     1
 2.6918097700e-02     3     2     2     3
 8.4214320000e-03     3     2     2     4
-5.1307000000e-06     3     2     2     5
-2.9107500000e-03     3     2     4     1
 3.2097404900e-02     3     2     4     3
-7.4667900800e-02     3     2     4     4
-1.6426000000e-06     3     2     4     5
 1.2259000000e-06     3     2     5     1
-1.7331800000e-05     3     2     5     3
-1.3504000000e-06     3     2     5     4
-7.7721908400e-02     3     2     5     5
 7.6230705200e-02     3     3     1     1
 7.0517691700e-02     3     3     1     2
-2.6571203000e-03     3     3     1     4
 4.2671000000e-06     3     3     1     5
 7.0517691700e-02     3     3     2     1
-2.6918097700e-02     3     3     2     2
-3.2097404900e-02     3     3     2     4
 1.7331800000e-05     3     3     2     5
-2.6571203000e-03     3     3     4     1
-3.2097404900e-02     3     3     4     2
 1.0777892280e-01     3     3     4     4
 3.2807000000e-06     3     3     4     5
 4.2671000000e-06     3     3     5     1
 1.7331800000e-05     3     3     5     2
 3.2807000000e-06     3     3     5     4
 1.1610874720e-01     3     3     5     5
-2.9228798000e-03     3     4     1     1
-8.6682570000e-03     3     4     1     2
 2.6571203000e-03     3     4     1     3
-8.5000000000e-08     3     4     1     5
-1.1579007000e-02     3     4     2     1
-8.4214320000e-03     3     4     2     2
 3.2097404900e-02     3     4     2     3
-2.9220000000e-07     3     4     2     5
 5.4557859500e-02     3     4     4     1
 7.4667900800e-02     3     4     4     2
-1.0777892280e-01     3     4     4     3
-3.7283000000e-06     3     4     4     5
 6.3420000000e-07     3     4     5     1
 1.3504000000e-06     3     4     5     2
-3.2807000000e-06     3     4     5     3
-8.3255800000e-03     3     4     5     5
 1.1548000000e-06     3     5     1     1
 3.9560000000e-06     3     5     1     2
-4.2671000000e-06     3     5     1     3
 8.5000000000e-08     3     5     1     4
 5.1819000000e-06     3     5     2     1
 5.1307000000e-06     3     5     2     2
-1.7331800000e-05     3     5     2     3
 2.9220000000e-07     3     5     2     4
 7.1920000000e-07     3     5     4     1
 1.6426000000e-06     3     5     4     2
-3.2807000000e-06     3     5     4     3
 3.7283000000e-06     3     5     4     4
 5.6852813700e-02     3     5     5     1
 7.7721908400e-02     3     5     5     2
-1.1610874720e-01     3     5     5     3
 8.3255800000e-03     3     5     5     4
 1.7367658000e-02     4     1     1     2
 2.9228798000e-03     4     1     1     3
-8.8298247600e-02     4     1     1     4
-1.5989000000e-06     4     1     1     5
 2.4363918600e-02     4     1     2     2
 8.6682570000e-03     4     1     2     3
-8.1294800300e-02     4     1     2     4
-3.4547000000e-06     4     1     2     5
-2.9107500000e-03     4     1     3     2
-2.6571203000e-03     4     1     3     3
 5.4557859500e-02     4     1     3     4
 7.1920000000e-07     4     1     3     5
 1.7770000000e-07     4     1     5     2
 8.5000000000e-08     4     1     5     3
-4.0682000000e-06     4     1     5     4
-9.8877060000e-04     4     1     5     5
-1.7367658000e-02     4     2     1     1
 1.1579007000e-02     4     2     1     3
-8.1294800300e-02     4     2     1     4
-3.6324000000e-06     4     2     1     5
-2.4363918600e-02     4     2     2     1
 8.4214320000e-03     4     2     2     3
-8.7680085000e-03     4     2     2     4
 4.2000000000e-08     4     2     2     5
 2.9107500000e-03     4     2     3     1
-3.2097404900e-02     4     2     3     3
 7.4667900800e-02     4     2     3     4
 1.6426000000e-06     4     2     3     5
-1.7770000000e-07     4     2     5     1
 2.9220000000e-07     4     2     5     3
-1.6816100000e-05     4     2     5     4
-2.9755106100e-02     4     2     5     5
-2.9228798000e-03     4     3     1     1
-1.1579007000e-02     4     3     1     2
 5.4557859500e-02     4     3     1     4
 6.3420000000e-07     4     3     1     5
-8.6682570000e-03     4     3     2     1
-8.4214320000e-03     4     3     2     2
 7.4667900800e-02     4     3     2     4
 1.3504000000e-06     4     3     2     5
 2.6571203000e-03     4     3     3     1
 3.2097404900e-02     4     3     3     2
-1.0777892280e-01     4     3     3     4
-3.2807000000e-06     4     3     3     5
-8.5000000000e-08     4     3     5     1
-2.9220000000e-07     4     3     5     2
-3.7283000000e-06     4     3     5     4
-8.3255800000e-03     4     3     5     5
 8.8298247600e-02     4     4     1     1
 8.1294800300e-02     4     4     1     2
-5.4557859500e-02     4     4     1     3
 4.0682000000e-06     4     4     1     5
 8.1294800300e-02     4     4     2     1
 8.7680085000e-03     4     4     2     2
-7.4667900800e-02     4     4     2     3
 1.6816100000e-05     4     4     2     5
-5.4557859500e-02     4     4     3     1
-7.4667900800e-02     4     4     3     2
 1.0777892280e-01     4     4     3     3
 3.7283000000e-06     4     4     3     5
 4.0682000000e-06     4     4     5     1
 1.6816100000e-05     4     4     5     2
 3.7283000000e-06     4     4     5     3
 1.3000878490e-01     4     4     5     5
 1.5989000000e-06     4     5     1     1
 3.6324000000e-06     4     5     1     2
-6.3420000000e-07     4     5     1     3
-4.0682000000e-06     4     5     1     4
 3.4547000000e-06     4     5     2     1
-4.2000000000e-08     4     5     2     2
-1.3504000000e-06     4     5     2     3
-1.6816100000e-05     4     5     2     4