&FCI NORB=  5,NELEC=  2,MS2=0,
 ORBSYM=1,1,1,1,1
 ISYM=1,
&END
 1.2309589270e-01     1     1     2     2
 2.1668000000e-06     1     1     2     3
-2.2560200000e-05     1     1     2     4
 1.1225377300e-02     1     1     2     5
 2.1668000000e-06     1     1     3     2
 1.5141615270e-01     1     1     3     3
-5.3000000000e-08     1     1     3     4
 5.7729000000e-06     1     1     3     5
-2.2560200000e-05     1     1     4     2
-5.3000000000e-08     1     1     4     3
 1.5136219720e-01     1     1     4     4
-2.5751600000e-05     1     1     4     5
 1.1225377300e-02     1     1     5     2
 5.7729000000e-06     1     1     5     3
-2.5751600000e-05     1     1     5     4
 1.6745651450e-01     1     1     5     5
-1.2309589270e-01     1     2     2     1
 8.6920000000e-06     1     2     2     3
-5.8253300000e-05     1     2     2     4
 2.8266144200e-02     1     2     2     5
-2.1668000000e-06     1     2     3     1
 9.2567840700e-02     1     2     3     3
-1.1600000000e-08     1     2     3     4
 2.0179000000e-06     1     2     3     5
 2.2560200000e-05     1     2     4     1
-3.2700000000e-08     1     2     4     3
 9.2546536800e-02     1     2     4     4
-4.7829000000e-06     1     2     4     5
-1.1225377300e-02     1     2     5     1
 1.2504000000e-06     1     2     5     3
-5.7007000000e-06     1     2     5     4
 9.6503435400e-02     1     2     5     5
-2.1668000000e-06     1     3     2     1
-8.6920000000e-06     1     3     2     2
 2.1100000000e-08     1     3     2     4
 7.6750000000e-07     1     3     2     5
-1.5141615270e-01     1     3     3     1
-9.2567840700e-02     1     3     3     2
-5.5724100000e-05     1     3     3     4
 2.7169901500e-02     1     3     3     5
 5.3000000000e-08     1     3     4     1
 3.2700000000e-08     1     3     4     2
-9.3324000000e-06     1     3     4     4
 1.3100000000e-08     1     3     4     5
-5.7729000000e-06     1     3     5     1
-1.2504000000e-06     1     3     5     2
 1.0700000000e-08     1     3     5     4
-9.9017000000e-06     1     3     5     5
 2.2560200000e-05     1     4     2     1
 5.8253300000e-05     1     4     2     2
-2.1100000000e-08     1     4     2     3
 9.1780000000e-07     1     4     2     5
 5.3000000000e-08     1     4     3     1
 1.1600000000e-08     1     4     3     2
 5.5724100000e-05     1     4     3     3
 2.4000000000e-09     1     4     3     5
-1.5136219720e-01     1     4     4     1
-9.2546536800e-02     1     4     4     2
 9.3324000000e-06     1     4     4     3
 2.7170798000e-02     1     4     4     5
 2.5751600000e-05     1     4     5     1
 5.7007000000e-06     1     4     5     2
-1.0700000000e-08     1     4     5     3
 5.8611100000e-05     1     4     5     5
-1.1225377300e-02     1     5     2     1
-2.8266144200e-02     1     5     2     2
-7.6750000000e-07     1     5     2     3
-9.1780000000e-07     1     5     2     4
-5.7729000000e-06     1     5     3     1
-2.0179000000e-06     1     5     3     2
-2.7169901500e-02     1     5     3     3
-2.4000000000e-09     1     5     3     4
 2.5751600000e-05     1     5     4     1
 4.7829000000e-06     1     5     4     2
-1.3100000000e-08     1     5     4     3
-2.7170798000e-02     1     5     4     4
-1.6745651450e-01     1     5     5     1
-9.6503435400e-02     1     5     5     2
 9.9017000000e-06     1     5     5     3
-5.8611100000e-05     1     5     5     4
-1.2309589270e-01     2     1     1     2
-2.1668000000e-06     2     1     1     3
 2.2560200000e-05     2     1     1     4
-1.1225377300e-02     2     1     1     5
 8.6920000000e-06     2     1     3     2
 9.2567840700e-02     2     1     3     3
-3.2700000000e-08     2     1     3     4
 1.2504000000e-06     2     1     3     5
-5.8253300000e-05     2     1     4     2
-1.1600000000e-08     2     1     4     3
 9.2546536800e-02     2     1     4     4
-5.7007000000e-06     2     1     4     5
 2.8266144200e-02     2     1     5     2
 2.0179000000e-06     2     1     5     3
-4.7829000000e-06     2     1     5     4
 9.6503435400e-02     2     1     5     5
 1.2309589270e-01     2     2     1     1
-8.6920000000e-06     2     2     1     3
 5.8253300000e-05     2     2     1     4
-2.8266144200e-02     2     2     1     5
-8.6920000000e-06     2     2     3     1
 1.6283726910e-01     2     2     3     3
-6.1500000000e-08     2     2     3     4
 6.0843000000e-06     2     2     3     5
 5.8253300000e-05     2     2     4     1
-6.1500000000e-08     2     2     4     3
 1.6277562650e-01     2     2     4     4
-2.5573000000e-05     2     2     4     5
-2.8266144200e-02     2     2     5     1
 6.0843000000e-06     2     2     5     3
-2.5573000000e-05     2     2     5     4
 1.7920854750e-01     2     2     5     5
 2.1668000000e-06     2     3     1     1
 8.6920000000e-06     2     3     1     2
-2.1100000000e-08     2     3     1     4
-7.6750000000e-07     2     3     1     5
-9.2567840700e-02     2     3     3     1
-1.6283726910e-01     2     3     3     2
 1.6196700000e-05     2     3     3     4
-8.1136442000e-03     2     3     3     5
 1.1600000000e-08     2     3     4     1
 6.1500000000e-08     2     3     4     2
 1.1713000000e-06     2     3     4     4
 7.1000000000e-09     2     3     4     5
-2.0179000000e-06     2     3     5     1
-6.0843000000e-06     2     3     5     2
 4.6000000000e-09     2     3     5     4
 9.9250000000e-07     2     3     5     5
-2.2560200000e-05     2     4     1     1
-5.8253300000e-05     2     4     1     2
 2.1100000000e-08     2     4     1     3
-9.1780000000e-07     2     4     1     5
 3.2700000000e-08     2     4     3     1
 6.1500000000e-08     2     4     3     2
-1.6196700000e-05     2     4     3     3
 2.5000000000e-09     2     4     3     5
-9.2546536800e-02     2     4     4     1
-1.6277562650e-01     2     4     4     2
-1.1713000000e-06     2     4     4     3
-8.1111372000e-03     2     4     4     5
 4.7829000000e-06     2     4     5     1
 2.5573000000e-05     2     4     5     2
-4.6000000000e-09     2     4     5     3
-1.5987800000e-05     2     4     5     5
 1.1225377300e-02     2     5     1     1
 2.8266144200e-02     2     5     1     2
 7.6750000000e-07     2     5     1     3
 9.1780000000e-07     2     5     1     4
-1.2504000000e-06     2     5     3     1
-6.0843000000e-06     2     5     3     2
 8.1136442000e-03     2     5     3     3
-2.5000000000e-09     2     5     3     4
 5.7007000000e-06     2     5     4     1
 2.5573000000e-05     2     5     4     2
-7.1000000000e-09     2     5     4     3
 8.1111372000e-03     2     5     4     4
-9.6503435400e-02     2     5     5     1
-1.7920854750e-01     2     5     5     2
-9.9250000000e-07     2     5     5     3
 1.5987800000e-05     2     5     5     4
-2.1668000000e-06     3     1     1     2
-1.5141615270e-01     3     1     1     3
 5.3000000000e-08     3     1     1     4
-5.7729000000e-06     3     1     1     5
-8.6920000000e-06     3     1     2     2
-9.2567840700e-02     3     1     2     3
 3.2700000000e-08     3     1     2     4
-1.2504000000e-06     3     1     2     5
 2.1100000000e-08     3     1     4     2
-5.5724100000e-05     3     1     4     3
-9.3324000000e-06     3     1     4     4
 1.0700000000e-08     3     1     4     5
 7.6750000000e-07     3     1     5     2
 2.7169901500e-02     3     1     5     3
 1.3100000000e-08     3     1     5     4
-9.9017000000e-06     3     1     5     5
 2.1668000000e-06     3     2     1     1
-9.2567840700e-02     3     2     1     3
 1.1600000000e-08     3     2     1     4
-2.0179000000e-06     3     2     1     5
 8.6920000000e-06     3     2     2     1
-1.6283726910e-01     3     2     2     3
 6.1500000000e-08     3     2     2     4
-6.0843000000e-06     3     2     2     5
-2.1100000000e-08     3     2     4     1
 1.6196700000e-05     3     2     4     3
 1.1713000000e-06     3     2     4     4
 4.6000000000e-09     3     2     4     5
-7.6750000000e-07     3     2     5     1
-8.1136442000e-03     3     2     5     3
 7.1000000000e-09     3     2     5     4
 9.9250000000e-07     3     2     5     5
 1.5141615270e-01     3     3     1     1
 9.2567840700e-02     3     3     1     2
 5.5724100000e-05     3     3     1     4
-2.7169901500e-02     3     3     1     5
 9.2567840700e-02     3     3     2     1
 1.6283726910e-01     3     3     2     2
-1.6196700000e-05     3     3     2     4
 8.1136442000e-03     3     3     2     5
 5.5724100000e-05     3     3     4     1
-1.6196700000e-05     3     3     4     2
 1.7471872470e-01     3     3     4     4
-2.1724100000e-05     3     3     4     5
-2.7169901500e-02     3     3     5     1
 8.1136442000e-03     3     3     5     2
-2.1724100000e-05     3     3     5     4
 1.8878735490e-01     3     3     5     5
-5.3000000000e-08     3     4     1     1
-1.1600000000e-08     3     4     1     2
-5.5724100000e-05     3     4     1     3
-2.4000000000e-09     3     4     1     5
-3.2700000000e-08     3     4     2     1
-6.1500000000e-08     3     4     2     2
 1.6196700000e-05     3     4     2     3
-2.5000000000e-09     3     4     2     5
 9.3324000000e-06     3     4     4     1
-1.1713000000e-06     3     4     4     2
-1.7471872470e-01     3     4     4     3
-5.0195000000e-06     3     4     4     5
-1.3100000000e-08     3     4     5     1
-7.1000000000e-09     3     4     5     2
 2.1724100000e-05     3     4     5     3
-5.4300000000e-08     3     4     5     5
 5.7729000000e-06     3     5     1     1
 2.0179000000e-06     3     5     1     2
 2.7169901500e-02     3     5     1     3
 2.4000000000e-09     3     5     1     4
 1.2504000000e-06     3     5     2     1
 6.0843000000e-06     3     5     2     2
-8.1136442000e-03     3     5     2     3
 2.5000000000e-09     3     5     2     4
-1.0700000000e-08     3     5     4     1
-4.6000000000e-09     3     5     4     2
 2.1724100000e-05     3     5     4     3
 5.0195000000e-06     3     5     4     4
 9.9017000000e-06     3     5     5     1
-9.9250000000e-07     3     5     5     2
-1.8878735490e-01     3     5     5     3
 5.4300000000e-08     3     5     5     4
 2.2560200000e-05     4     1     1     2
 5.3000000000e-08     4     1     1     3
-1.5136219720e-01     4     1     1     4
 2.5751600000e-05     4     1     1     5
 5.8253300000e-05     4     1     2     2
 1.1600000000e-08     4     1     2     3
-9.2546536800e-02     4     1     2     4
 5.7007000000e-06     4     1     2     5
-2.1100000000e-08     4     1     3     2
 5.5724100000e-05     4     1     3     3
 9.3324000000e-06     4     1     3     4
-1.0700000000e-08     4     1     3     5
 9.1780000000e-07     4     1     5     2
 2.4000000000e-09     4     1     5     3
 2.7170798000e-02     4     1     5     4
 5.8611100000e-05     4     1     5     5
-2.2560200000e-05     4     2     1     1
 3.2700000000e-08     4     2     1     3
-9.2546536800e-02     4     2     1     4
 4.7829000000e-06     4     2     1     5
-5.8253300000e-05     4     2     2     1
 6.1500000000e-08     4     2     2     3
-1.6277562650e-01     4     2     2     4
 2.5573000000e-05     4     2     2     5
 2.1100000000e-08     4     2     3     1
-1.6196700000e-05     4     2     3     3
-1.1713000000e-06     4     2     3     4
-4.6000000000e-09     4     2     3     5
-9.1780000000e-07     4     2     5     1
 2.5000000000e-09     4     2     5     3
-8.1111372000e-03     4     2     5     4
-1.5987800000e-05     4     2     5     5
-5.3000000000e-08     4     3     1     1
-3.2700000000e-08     4     3     1     2
 9.3324000000e-06     4     3     1     4
-1.3100000000e-08     4     3     1     5
-1.1600000000e-08     4     3     2     1
-6.1500000000e-08     4     3     2     2
-1.1713000000e-06     4     3     2     4
-7.1000000000e-09     4     3     2     5
-5.5724100000e-05     4     3     3     1
 1.6196700000e-05     4     3     3     2
-1.7471872470e-01     4     3     3     4
 2.1724100000e-05     4     3     3     5
-2.4000000000e-09     4     3     5     1
-2.5000000000e-09     4     3     5     2
-5.0195000000e-06     4     3     5     4
-5.4300000000e-08     4     3     5     5
 1.5136219720e-01     4     4     1     1
 9.2546536800e-02     4     4     1     2
-9.3324000000e-06     4     4     1     3
-2.7170798000e-02     4     4     1     5
 9.2546536800e-02     4     4     2     1
 1.6277562650e-01     4     4     2     2
 1.1713000000e-06     4     4     2     3
 8.1111372000e-03     4     4     2     5
-9.3324000000e-06     4     4     3     1
 1.1713000000e-06     4     4     3     2
 1.7471872470e-01     4     4     3     3
 5.0195000000e-06     4     4     3     5
-2.7170798000e-02     4     4     5     1
 8.1111372000e-03     4     4     5     2
 5.0195000000e-06     4     4     5     3
 1.8873013850e-01     4     4     5     5
-2.5751600000e-05     4     5     1     1
-4.7829000000e-06     4     5     1     2
 1.3100000000e-08     4     5     1     3
 2.7170798000e-02     4     5     1     4
-5.7007000000e-06     4     5     2     1
-2.5573000000e-05     4     5     2     2
 7.1000000000e-09     4     5     2     3
-8.1111372000e-03     4     5     2     4
 1.0700000000e-08     4     5     3     1
 4.6000000000e-09     4     5     3     2
-2.1724100000e-05     4     5     3     3
-5.0195000000e-06     4     5     3     4
-5.8611100000e-05     4     5     5     1
 1.5987800000e-05     4     5     5     2
 5.4300000000e-08     4     5     5     3
-1.8873013850e-01     4     5     5     4
-1.1225377300e-02     5     1     1     2
-5.7729000000e-06     5     1     1     3
 2.5751600000e-05     5     1     1     4
-1.6745651450e-01     5     1     1     5
-2.8266144200e-02     5     1     2     2
-2.0179000000e-06     5     1     2     3
 4.7829000000e-06     5     1     2     4
-9.6503435400e-02     5     1     2     5
-7.6750000000e-07     5     1     3     2
-2.7169901500e-02     5     1     3     3
-1.3100000000e-08     5     1     3     4
 9.9017000000e-06     5     1     3     5
-9.1780000000e-07     5     1     4     2
-2.4000000000e-09     5     1     4     3
-2.7170798000e-02     5     1     4     4
-5.8611100000e-05     5     1     4     5
 1.1225377300e-02     5     2     1     1
-1.2504000000e-06     5     2     1     3
 5.7007000000e-06     5     2     1     4
-9.6503435400e-02     5     2     1     5
 2.8266144200e-02     5     2     2     1
-6.0843000000e-06     5     2     2     3
 2.5573000000e-05     5     2     2     4
-1.7920854750e-01     5     2     2     5
 7.6750000000e-07     5     2     3     1
 8.1136442000e-03     5     2     3     3
-7.1000000000e-09     5     2     3     4
-9.9250000000e-07     5     2     3     5
 9.1780000000e-07     5     2     4     1
-2.5000000000e-09     5     2     4     3
 8.1111372000e-03     5     2     4     4
 1.5987800000e-05     5     2     4     5
 5.7729000000e-06     5     3     1     1
 1.2504000000e-06     5     3     1     2
-1.0700000000e-08     5     3     1     4
 9.9017000000e-06     5     3     1     5
 2.0179000000e-06     5     3     2     1
 6.0843000000e-06     5     3     2     2
-4.6000000000e-09     5     3     2     4
-9.9250000000e-07     5     3     2     5
 2.7169901500e-02     5     3     3     1
-8.1136442000e-03     5     3     3     2
 2.1724100000e-05     5     3     3     4
-1.8878735490e-01     5     3     3     5
 2.4000000000e-09     5     3     4     1
 2.5000000000e-09     5     3     4     2
 5.0195000000e-06     5     3     4     4
 5.4300000000e-08     5     3     4     5
-2.5751600000e-05     5     4     1     1
-5.7007000000e-06     5     4     1     2
 1.0700000000e-08     5     4     1     3
-5.8611100000e-05     5     4     1     5
-4.7829000000e-06     5     4     2     1
-2.5573000000e-05     5     4     2     2
 4.6000000000e-09     5     4     2     3
 1.5987800000e-05     5     4     2     5
 1.3100000000e-08     5     4     3     1
 7.1000000000e-09     5     4     3     2
-2.1724100000e-05     5     4     3     3
 5.4300000000e-08     5     4     3     5
 2.7170798000e-02     5     4     4     1
-8.1111372000e-03     5     4     4     2
-5.0195000000e-06     5     4     4     3
-1.8873013850e-01     5     4     4     5
 1.6745651450e-01     5     5     1     1
 9.6503435400e-02     5     5     1     2
-9.9017000000e-06     5     5     1     3
 5.8611100000e-05     5     5     1     4
 9.6503435400e-02     5     5     2     1
 1.7920854750e-01     5     5     2     2
 9.9250000000e-07     5     5     2     3
-1.5987800000e-05     5     5     2     4
-9.9017000000e-06     5     5     3     1
 9.9250000000e-07     5     5     3     2
 1.8878735490e-01     5     5     3     3
-5.4300000000e-08     5     5     3     4
 5.8611100000e-05     5     5     4     1
-1.5987800000e-05     5     5     4     2
-5.4300000000e-08     5     5     4     3
 1.8873013850e-01     5     5     4     4
0.0 0 0 0 0
 1.2309589270e-01     1     1     2     2
 2.1668000000e-06     1     1     2     3
-2.2560200000e-05     1     1     2     4
 1.1225377300e-02     1     1     2     5
 2.1668000000e-06     1     1     3     2
 1.5141615270e-01     1     1     3     3
-5.3000000000e-08     1     1     3     4
 5.7729000000e-06     1     1     3     5
-2.2560200000e-05     1     1     4     2
-5.3000000000e-08     1     1     4     3
 1.5136219720e-01     1     1     4     4
-2.5751600000e-05     1     1     4     5
 1.1225377300e-02     1     1     5     2
 5.7729000000e-06     1     1     5     3
-2.5751600000e-05     1     1     5     4
 1.6745651450e-01     1     1     5     5
-1.2309589270e-01     1     2     2     1
 8.6920000000e-06     1     2     2     3
-5.8253300000e-05     1     2     2     4
 2.8266144200e-02     1     2     2     5
-2.1668000000e-06     1     2     3     1
 9.2567840700e-02     1     2     3     3
-1.1600000000e-08     1     2     3     4
 2.0179000000e-06     1     2     3     5
 2.2560200000e-05     1     2     4     1
-3.2700000000e-08     1     2     4     3
 9.2546536800e-02     1     2     4     4
-4.7829000000e-06     1     2     4     5
-1.1225377300e-02     1     2     5     1
 1.2504000000e-06     1     2     5     3
-5.7007000000e-06     1     2     5     4
 9.6503435400e-02     1     2     5     5
-2.1668000000e-06     1     3     2     1
-8.6920000000e-06     1     3     2     2
 2.1100000000e-08     1     3     2     4
 7.6750000000e-07     1     3     2     5
-1.5141615270e-01     1     3     3     1
-9.2567840700e-02     1     3     3     2
-5.5724100000e-05     1     3     3     4
 2.7169901500e-02     1     3     3     5
 5.3000000000e-08     1     3     4     1
 3.2700000000e-08     1     3     4     2
-9.3324000000e-06     1     3     4     4
 1.3100000000e-08     1     3     4     5
-5.7729000000e-06     1     3     5     1
-1.2504000000e-06     1     3     5     2
 1.0700000000e-08     1     3     5     4
-9.9017000000e-06     1     3     5     5
 2.2560200000e-05     1     4     2     1
 5.8253300000e-05     1     4     2     2
-2.1100000000e-08     1     4     2     3
 9.1780000000e-07     1     4     2     5
 5.3000000000e-08     1     4     3     1
 1.1600000000e-08     1     4     3     2
 5.5724100000e-05     1     4     3     3
 2.4000000000e-09     1     4     3     5
-1.5136219720e-01     1     4     4     1
-9.2546536800e-02     1     4     4     2
 9.3324000000e-06     1     4     4     3
 2.7170798000e-02     1     4     4     5
 2.5751600000e-05     1     4     5     1
 5.7007000000e-06     1     4     5     2
-1.0700000000e-08     1     4     5     3
 5.8611100000e-05     1     4     5     5
-1.1225377300e-02     1     5     2     1
-2.8266144200e-02     1     5     2     2
-7.6750000000e-07     1     5     2     3
-9.1780000000e-07     1     5     2     4
-5.7729000000e-06     1     5     3     1
-2.0179000000e-06     1     5     3     2
-2.7169901500e-02     1     5     3     3
-2.4000000000e-09     1     5     3     4
 2.5751600000e-05     1     5     4     1
 4.7829000000e-06     1     5     4     2
-1.3100000000e-08     1     5     4     3
-2.7170798000e-02     1     5     4     4
-1.6745651450e-01     1     5     5     1
-9.6503435400e-02     1     5     5     2
 9.9017000000e-06     1     5     5     3
-5.8611100000e-05     1     5     5     4
-1.2309589270e-01     2     1     1     2
-2.1668000000e-06     2     1     1     3
 2.2560200000e-05     2     1     1     4
-1.1225377300e-02     2     1     1     5
 8.6920000000e-06     2     1     3     2
 9.2567840700e-02     2     1     3     3
-3.2700000000e-08     2     1     3     4
 1.2504000000e-06     2     1     3     5
-5.8253300000e-05     2     1     4     2
-1.1600000000e-08     2     1     4     3
 9.2546536800e-02     2     1     4     4
-5.7007000000e-06     2     1     4     5
 2.8266144200e-02     2     1     5     2
 2.0179000000e-06     2     1     5     3
-4.7829000000e-06     2     1     5     4
 9.6503435400e-02     2     1     5     5
 1.2309589270e-01     2     2     1     1
-8.6920000000e-06     2     2     1     3
 5.8253300000e-05     2     2     1     4
-2.8266144200e-02     2     2     1     5
-8.6920000000e-06     2     2     3     1
 1.6283726910e-01     2     2     3     3
-6.1500000000e-08     2     2     3     4
 6.0843000000e-06     2     2     3     5
 5.8253300000e-05     2     2     4     1
-6.1500000000e-08     2     2     4     3
 1.6277562650e-01     2     2     4     4
-2.5573000000e-05     2     2     4     5
-2.8266144200e-02     2     2     5     1
 6.0843000000e-06     2     2     5     3
-2.5573000000e-05     2     2     5     4
 1.7920854750e-01     2     2     5     5
 2.1668000000e-06     2     3     1     1
 8.6920000000e-06     2     3     1     2
-2.1100000000e-08     2     3     1     4
-7.6750000000e-07     2     3     1     5
-9.2567840700e-02     2     3     3     1
-1.6283726910e-01     2     3     3     2
 1.6196700000e-05     2     3     3     4
-8.1136442000e-03     2     3     3     5
 1.1600000000e-08     2     3     4     1
 6.1500000000e-08     2     3     4     2
 1.1713000000e-06     2     3     4     4
 7.1000000000e-09     2     3     4     5
-2.0179000000e-06     2     3     5     1
-6.0843000000e-06     2     3     5     2
 4.6000000000e-09     2     3     5     4
 9.9250000000e-07     2     3     5     5
-2.2560200000e-05     2     4     1     1
-5.8253300000e-05     2     4     1     2
 2.1100000000e-08     2     4     1     3
-9.1780000000e-07     2     4     1     5
 3.2700000000e-08     2     4     3     1
 6.1500000000e-08     2     4     3     2
-1.6196700000e-05     2     4     3     3
 2.5000000000e-09     2     4     3     5
-9.2546536800e-02     2     4     4     1
-1.6277562650e-01     2     4     4     2
-1.1713000000e-06     2     4     4     3
-8.1111372000e-03     2     4     4     5
 4.7829000000e-06     2     4     5     1
 2.5573000000e-05     2     4     5     2
-4.6000000000e-09     2     4     5     3
-1.5987800000e-05     2     4     5     5
 1.1225377300e-02     2     5     1     1
 2.8266144200e-02     2     5     1     2
 7.6750000000e-07     2     5     1     3
 9.1780000000e-07     2     5     1     4
-1.2504000000e-06     2     5     3     1
-6.0843000000e-06     2     5     3     2
 8.1136442000e-03     2     5     3     3
-2.5000000000e-09     2     5     3     4
 5.7007000000e-06     2     5     4     1
 2.5573000000e-05     2     5     4     2
-7.1000000000e-09     2     5     4     3
 8.1111372000e-03     2     5     4     4
-9.6503435400e-02     2     5     5     1
-1.7920854750e-01     2     5     5     2
-9.9250000000e-07     2     5     5     3
 1.5987800000e-05     2     5     5     4
-2.1668000000e-06     3     1     1     2
-1.5141615270e-01     3     1     1     3
 5.3000000000e-08     3     1     1     4
-5.7729000000e-06     3     1     1     5
-8.6920000000e-06     3     1     2     2
-9.2567840700e-02     3     1     2     3
 3.2700000000e-08     3     1     2     4
-1.2504000000e-06     3     1     2     5
 2.1100000000e-08     3     1     4     2
-5.5724100000e-05     3     1     4     3
-9.3324000000e-06     3     1     4     4
 1.0700000000e-08     3     1     4     5
 7.6750000000e-07     3     1     5     2
 2.7169901500e-02     3     1     5     3
 1.3100000000e-08     3     1     5     4
-9.9017000000e-06     3     1     5     5
 2.1668000000e-06     3     2     1     1
-9.2567840700e-02     3     2     1     3
 1.1600000000e-08     3     2     1     4
-2.0179000000e-06     3     2     1     5
 8.6920000000e-06     3     2     2     1
-1.6283726910e-01     3     2     2     3
 6.1500000000e-08     3     2     2     4
-6.0843000000e-06     3     2     2     5
-2.1100000000e-08     3     2     4     1
 1.6196700000e-05     3     2     4     3
 1.1713000000e-06     3     2     4     4
 4.6000000000e-09     3     2     4     5
-7.6750000000e-07     3     2     5     1
-8.1136442000e-03     3     2     5     3
 7.1000000000e-09     3     2     5     4
 9.9250000000e-07     3     2     5     5
 1.5141615270e-01     3     3     1     1
 9.2567840700e-02     3     3     1     2
 5.5724100000e-05     3     3     1     4
-2.7169901500e-02     3     3     1     5
 9.2567840700e-02     3     3     2     1
 1.6283726910e-01     3     3     2     2
-1.6196700000e-05     3     3     2     4
 8.1136442000e-03     3     3     2     5
 5.5724100000e-05     3     3     4     1
-1.6196700000e-05     3     3     4     2
 1.7471872470e-01     3     3     4     4
-2.1724100000e-05     3     3     4     5
-2.7169901500e-02     3     3     5     1
 8.1136442000e-03     3     3     5     2
-2.1724100000e-05     3     3     5     4
 1.8878735490e-01     3     3     5     5
-5.3000000000e-08     3     4     1     1
-1.1600000000e-08     3     4     1     2
-5.5724100000e-05     3     4     1     3
-2.4000000000e-09     3     4     1     5
-3.2700000000e-08     3     4     2     1
-6.1500000000e-08     3     4     2     2
 1.6196700000e-05     3     4     2     3
-2.5000000000e-09     3     4     2     5
 9.3324000000e-06     3     4     4     1
-1.1713000000e-06     3     4     4     2
-1.7471872470e-01     3     4     4     3
-5.0195000000e-06     3     4     4     5
-1.3100000000e-08     3     4     5     1
-7.1000000000e-09     3     4     5     2
 2.1724100000e-05     3     4     5     3
-5.4300000000e-08     3     4     5     5
 5.7729000000e-06     3     5     1     1
 2.0179000000e-06     3     5     1     2
 2.7169901500e-02     3     5     1     3
 2.4000000000e-09     3     5     1     4
 1.2504000000e-06     3     5     2     1
 6.0843000000e-06     3     5     2     2
-8.1136442000e-03     3     5     2     3
 2.5000000000e-09     3     5     2     4
-1.0700000000e-08     3     5     4     1
-4.6000000000e-09     3     5     4     2
 2.1724100000e-05     3     5     4     3
 5.0195000000e-06     3     5     4     4
 9.9017000000e-06     3     5     5     1
-9.9250000000e-07     3     5     5     2
-1.8878735490e-01     3     5     5     3
 5.4300000000e-08     3     5     5     4
 2.2560200000e-05     4     1     1     2
 5.3000000000e-08     4     1     1     3
-1.5136219720e-01     4     1     1     4
 2.5751600000e-05     4     1     1     5
 5.8253300000e-05     4     1     2     2
 1.1600000000e-08     4     1     2     3
-9.2546536800e-02     4     1     2     4
 5.7007000000e-06     4     1     2     5
-2.1100000000e-08     4     1     3     2
 5.5724100000e-05     4     1     3     3
 9.3324000000e-06     4     1     3     4
-1.0700000000e-08     4     1     3     5
 9.1780000000e-07     4     1     5     2
 2.4000000000e-09     4     1     5     3
 2.7170798000e-02     4     1     5     4
 5.8611100000e-05     4     1     5     5
-2.2560200000e-05     4     2     1     1
 3.2700000000e-08     4     2     1     3
-9.2546536800e-02     4     2     1     4
 4.7829000000e-06     4     2     1     5
-5.8253300000e-05     4     2     2     1
 6.1500000000e-08     4     2     2     3
-1.6277562650e-01     4     2     2     4
 2.5573000000e-05     4     2     2     5
 2.1100000000e-08     4     2     3     1
-1.6196700000e-05     4     2     3     3
-1.1713000000e-06     4     2     3     4
-4.6000000000e-09     4     2     3     5
-9.1780000000e-07     4     2     5     1
 2.5000000000e-09     4     2     5     3
-8.1111372000e-03     4     2     5     4
-1.5987800000e-05     4     2     5     5
-5.3000000000e-08     4     3     1     1
-3.2700000000e-08     4     3     1     2
 9.3324000000e-06     4     3     1     4
-1.3100000000e-08     4     3     1     5
-1.1600000000e-08     4     3     2     1
-6.1500000000e-08     4     3     2     2
-1.1713000000e-06     4     3     2     4
-7.1000000000e-09     4     3     2     5
-5.5724100000e-05     4     3     3     1
 1.6196700000e-05     4     3     3     2
-1.7471872470e-01     4     3     3     4
 2.1724100000e-05     4     3     3     5
-2.4000000000e-09     4     3     5     1
-2.5000000000e-09     4     3     5     2
-5.0195000000e-06     4     3     5     4
-5.4300000000e-08     4     3     5     5
 1.5136219720e-01     4     4     1     1
 9.2546536800e-02     4     4     1     2
-9.3324000000e-06     4     4     1     3
-2.7170798000e-02     4     4     1     5
 9.2546536800e-02     4     4     2     1
 1.6277562650e-01     4     4     2     2
 1.1713000000e-06     4     4     2     3
 8.1111372000e-03     4     4     2     5
-9.3324000000e-06     4     4     3     1
 1.1713000000e-06     4     4     3     2
 1.7471872470e-01     4     4     3     3
 5.0195000000e-06     4     4     3     5
-2.7170798000e-02     4     4     5     1
 8.1111372000e-03     4     4     5     2
 5.0195000000e-06     4     4     5     3
 1.8873013850e-01     4     4     5     5
-2.5751600000e-05     4     5     1     1
-4.7829000000e-06     4     5     1     2
 1.3100000000e-08     4     5     1     3
 2.7170798000e-02     4     5     1     4
-5.7007000000e-06     4     5     2     1
-2.5573000000e-05     4     5     2     2
 7.1000000000e-09     4     5     2     3
-8.1111372000e-03     4     5     2     4