&FCI NORB=  5,NELEC=  2,MS2=0,
 ORBSYM=1,1,1,1,1
 ISYM=1,
&END
 1.1291693360e-01     1     1     2     2
 2.0621920000e-04     1     1     2     3
-3.9720400000e-04     1     1     2     4
 1.1525719100e-02     1     1     2     5
 2.0621920000e-04     1     1     3     2
 1.4040996390e-01     1     1     3     3
-4.2819000000e-06     1     1     3     4
 1.2088920000e-04     1     1     3     5
-3.9720400000e-04     1     1     4     2
-4.2819000000e-06     1     1     4     3
 1.4043809820e-01     1     1     4     4
-2.3240490000e-04     1     1     4     5
 1.1525719100e-02     1     1     5     2
 1.2088920000e-04     1     1     5     3
-2.3240490000e-04     1     1     5     4
 1.4835318160e-01     1     1     5     5
-1.1291693360e-01     1     2     2     1
 6.7464070000e-04     1     2     2     3
-1.2983958000e-03     1     2     2     4
 3.7283534800e-02     1     2     2     5
-2.0621920000e-04     1     2     3     1
 8.5485808000e-02     1     2     3     3
-1.7297000000e-06     1     2     3     4
 4.5232300000e-05     1     2     3     5
 3.9720400000e-04     1     2     4     1
-1.8357000000e-06     1     2     4     3
 8.5497210300e-02     1     2     4     4
-8.6894800000e-05     1     2     4     5
-1.1525719100e-02     1     2     5     1
 4.9103400000e-05     1     2     5     3
-9.4289200000e-05     1     2     5     4
 8.8503476500e-02     1     2     5     5
-2.0621920000e-04     1     3     2     1
-6.7464070000e-04     1     3     2     2
 1.0600000000e-07     1     3     2     4
-3.8711000000e-06     1     3     2     5
-1.4040996390e-01     1     3     3     1
-8.5485808000e-02     1     3     3     2
-1.2933936000e-03     1     3     3     4
 3.7312985600e-02     1     3     3     5
 4.2819000000e-06     1     3     4     1
 1.8357000000e-06     1     3     4     2
-6.7219520000e-04     1     3     4     4
 1.0630000000e-07     1     3     4     5
-1.2088920000e-04     1     3     5     1
-4.9103400000e-05     1     3     5     2
-7.1000000000e-08     1     3     5     4
-6.8291540000e-04     1     3     5     5
 3.9720400000e-04     1     4     2     1
 1.2983958000e-03     1     4     2     2
-1.0600000000e-07     1     4     2     3
 7.3944000000e-06     1     4     2     5
 4.2819000000e-06     1     4     3     1
 1.7297000000e-06     1     4     3     2
 1.2933936000e-03     1     4     3     3
 1.7730000000e-07     1     4     3     5
-1.4043809820e-01     1     4     4     1
-8.5497210300e-02     1     4     4     2
 6.7219520000e-04     1     4     4     3
 3.7313521700e-02     1     4     4     5
 2.3240490000e-04     1     4     5     1
 9.4289200000e-05     1     4     5     2
 7.1000000000e-08     1     4     5     3
 1.3138710000e-03     1     4     5     5
-1.1525719100e-02     1     5     2     1
-3.7283534800e-02     1     5     2     2
 3.8711000000e-06     1     5     2     3
-7.3944000000e-06     1     5     2     4
-1.2088920000e-04     1     5     3     1
-4.5232300000e-05     1     5     3     2
-3.7312985600e-02     1     5     3     3
-1.7730000000e-07     1     5     3     4
 2.3240490000e-04     1     5     4     1
 8.6894800000e-05     1     5     4     2
-1.0630000000e-07     1     5     4     3
-3.7313521700e-02     1     5     4     4
-1.4835318160e-01     1     5     5     1
-8.8503476500e-02     1     5     5     2
 6.8291540000e-04     1     5     5     3
-1.3138710000e-03     1     5     5     4
-1.1291693360e-01     2     1     1     2
-2.0621920000e-04     2     1     1     3
 3.9720400000e-04     2     1     1     4
-1.1525719100e-02     2     1     1     5
 6.7464070000e-04     2     1     3     2
 8.5485808000e-02     2     1     3     3
-1.8357000000e-06     2     1     3     4
 4.9103400000e-05     2     1     3     5
-1.2983958000e-03     2     1     4     2
-1.7297000000e-06     2     1     4     3
 8.5497210300e-02     2     1     4     4
-9.4289200000e-05     2     1     4     5
 3.7283534800e-02     2     1     5     2
 4.5232300000e-05     2     1     5     3
-8.6894800000e-05     2     1     5     4
 8.8503476500e-02     2     1     5     5
 1.1291693360e-01     2     2     1     1
-6.7464070000e-04     2     2     1     3
 1.2983958000e-03     2     2     1     4
-3.7283534800e-02     2     2     1     5
-6.7464070000e-04     2     2     3     1
 1.5419468820e-01     2     2     3     3
-5.4993000000e-06     2     2     3     4
 1.5413090000e-04     2     2     3     5
 1.2983958000e-03     2     2     4     1
-5.4993000000e-06     2     2     4     3
 1.5422749630e-01     2     2     4     4
-2.9631200000e-04     2     2     4     5
-3.7283534800e-02     2     2     5     1
 1.5413090000e-04     2     2     5     3
-2.9631200000e-04     2     2     5     4
 1.6415559780e-01     2     2     5     5
 2.0621920000e-04     2     3     1     1
 6.7464070000e-04     2     3     1     2
-1.0600000000e-07     2     3     1     4
 3.8711000000e-06     2     3     1     5
-8.5485808000e-02     2     3     3     1
-1.5419468820e-01     2     3     3     2
 2.9097110000e-04     2     3     3     4
-8.4738724000e-03     2     3     3     5
 1.7297000000e-06     2     3     4     1
 5.4993000000e-06     2     3     4     2
 1.5101100000e-04     2     3     4     4
 7.8700000000e-08     2     3     4     5
-4.5232300000e-05     2     3     5     1
-1.5413090000e-04     2     3     5     2
 1.3000000000e-08     2     3     5     4
 1.4986030000e-04     2     3     5     5
-3.9720400000e-04     2     4     1     1
-1.2983958000e-03     2     4     1     2
 1.0600000000e-07     2     4     1     3
-7.3944000000e-06     2     4     1     5
 1.8357000000e-06     2     4     3     1
 5.4993000000e-06     2     4     3     2
-2.9097110000e-04     2     4     3     3
 6.5700000000e-08     2     4     3     5
-8.5497210300e-02     2     4     4     1
-1.5422749630e-01     2     4     4     2
-1.5101100000e-04     2     4     4     3
-8.4741165000e-03     2     4     4     5
 8.6894800000e-05     2     4     5     1
 2.9631200000e-04     2     4     5     2
-1.3000000000e-08     2     4     5     3
-2.8884610000e-04     2     4     5     5
 1.1525719100e-02     2     5     1     1
 3.7283534800e-02     2     5     1     2
-3.8711000000e-06     2     5     1     3
 7.3944000000e-06     2     5     1     4
-4.9103400000e-05     2     5     3     1
-1.5413090000e-04     2     5     3     2
 8.4738724000e-03     2     5     3     3
-6.5700000000e-08     2     5     3     4
 9.4289200000e-05     2     5     4     1
 2.9631200000e-04     2     5     4     2
-7.8700000000e-08     2     5     4     3
 8.4741165000e-03     2     5     4     4
-8.8503476500e-02     2     5     5     1
-1.6415559780e-01     2     5     5     2
-1.4986030000e-04     2     5     5     3
 2.8884610000e-04     2     5     5     4
-2.0621920000e-04     3     1     1     2
-1.4040996390e-01     3     1     1     3
 4.2819000000e-06     3     1     1     4
-1.2088920000e-04     3     1     1     5
-6.7464070000e-04     3     1     2     2
-8.5485808000e-02     3     1     2     3
 1.8357000000e-06     3     1     2     4
-4.9103400000e-05     3     1     2     5
 1.0600000000e-07     3     1     4     2
-1.2933936000e-03     3     1     4     3
-6.7219520000e-04     3     1     4     4
-7.1000000000e-08     3     1     4     5
-3.8711000000e-06     3     1     5     2
 3.7312985600e-02     3     1     5     3
 1.0630000000e-07     3     1     5     4
-6.8291540000e-04     3     1     5     5
 2.0621920000e-04     3     2     1     1
-8.5485808000e-02     3     2     1     3
 1.7297000000e-06     3     2     1     4
-4.5232300000e-05     3     2     1     5
 6.7464070000e-04     3     2     2     1
-1.5419468820e-01     3     2     2     3
 5.4993000000e-06     3     2     2     4
-1.5413090000e-04     3     2     2     5
-1.0600000000e-07     3     2     4     1
 2.9097110000e-04     3     2     4     3
 1.5101100000e-04     3     2     4     4
 1.3000000000e-08     3     2     4     5
 3.8711000000e-06     3     2     5     1
-8.4738724000e-03     3     2     5     3
 7.8700000000e-08     3     2     5     4
 1.4986030000e-04     3     2     5     5
 1.4040996390e-01     3     3     1     1
 8.5485808000e-02     3     3     1     2
 1.2933936000e-03     3     3     1     4
-3.7312985600e-02     3     3     1     5
 8.5485808000e-02     3     3     2     1
 1.5419468820e-01     3     3     2     2
-2.9097110000e-04     3     3     2     4
 8.4738724000e-03     3     3     2     5
 1.2933936000e-03     3     3     4     1
-2.9097110000e-04     3     3     4     2
 1.6340596810e-01     3     3     4     4
-2.3843090000e-04     3     3     4     5
-3.7312985600e-02     3     3     5     1
 8.4738724000e-03     3     3     5     2
-2.3843090000e-04     3     3     5     4
 1.7148444140e-01     3     3     5     5
-4.2819000000e-06     3     4     1     1
-1.7297000000e-06     3     4     1     2
-1.2933936000e-03     3     4     1     3
-1.7730000000e-07     3     4     1     5
-1.8357000000e-06     3     4     2     1
-5.4993000000e-06     3     4     2     2
 2.9097110000e-04     3     4     2     3
-6.5700000000e-08     3     4     2     5
 6.7219520000e-04     3     4     4     1
-1.5101100000e-04     3     4     4     2
-1.6340596810e-01     3     4     4     3
-1.2413890000e-04     3     4     4     5
-1.0630000000e-07     3     4     5     1
-7.8700000000e-08     3     4     5     2
 2.3843090000e-04     3     4     5     3
-4.4966000000e-06     3     4     5     5
 1.2088920000e-04     3     5     1     1
 4.5232300000e-05     3     5     1     2
 3.7312985600e-02     3     5     1     3
 1.7730000000e-07     3     5     1     4
 4.9103400000e-05     3     5     2     1
 1.5413090000e-04     3     5     2     2
-8.4738724000e-03     3     5     2     3
 6.5700000000e-08     3     5     2     4
 7.1000000000e-08     3     5     4     1
-1.3000000000e-08     3     5     4     2
 2.3843090000e-04     3     5     4     3
 1.2413890000e-04     3     5     4     4
 6.8291540000e-04     3     5     5     1
-1.4986030000e-04     3     5     5     2
-1.7148444140e-01     3     5     5     3
 4.4966000000e-06     3     5     5     4
 3.9720400000e-04     4     1     1     2
 4.2819000000e-06     4     1     1     3
-1.4043809820e-01     4     1     1     4
 2.3240490000e-04     4     1     1     5
 1.2983958000e-03     4     1     2     2
 1.7297000000e-06     4     1     2     3
-8.5497210300e-02     4     1     2     4
 9.4289200000e-05     4     1     2     5
-1.0600000000e-07     4     1     3     2
 1.2933936000e-03     4     1     3     3
 6.7219520000e-04     4     1     3     4
 7.1000000000e-08     4     1     3     5
 7.3944000000e-06     4     1     5     2
 1.7730000000e-07     4     1     5     3
 3.7313521700e-02     4     1     5     4
 1.3138710000e-03     4     1     5     5
-3.9720400000e-04     4     2     1     1
 1.8357000000e-06     4     2     1     3
-8.5497210300e-02     4     2     1     4
 8.6894800000e-05     4     2     1     5
-1.2983958000e-03     4     2     2     1
 5.4993000000e-06     4     2     2     3
-1.5422749630e-01     4     2     2     4
 2.9631200000e-04     4     2     2     5
 1.0600000000e-07     4     2     3     1
-2.9097110000e-04     4     2     3     3
-1.5101100000e-04     4     2     3     4
-1.3000000000e-08     4     2     3     5
-7.3944000000e-06     4     2     5     1
 6.5700000000e-08     4     2     5     3
-8.4741165000e-03     4     2     5     4
-2.8884610000e-04     4     2     5     5
-4.2819000000e-06     4     3     1     1
-1.8357000000e-06     4     3     1     2
 6.7219520000e-04     4     3     1     4
-1.0630000000e-07     4     3     1     5
-1.7297000000e-06     4     3     2     1
-5.4993000000e-06     4     3     2     2
-1.5101100000e-04     4     3     2     4
-7.8700000000e-08     4     3     2     5
-1.2933936000e-03     4     3     3     1
 2.9097110000e-04     4     3     3     2
-1.6340596810e-01     4     3     3     4
 2.3843090000e-04     4     3     3     5
-1.7730000000e-07     4     3     5     1
-6.5700000000e-08     4     3     5     2
-1.2413890000e-04     4     3     5     4
-4.4966000000e-06     4     3     5     5
 1.4043809820e-01     4     4     1     1
 8.5497210300e-02     4     4     1     2
-6.7219520000e-04     4     4     1     3
-3.7313521700e-02     4     4     1     5
 8.5497210300e-02     4     4     2     1
 1.5422749630e-01     4     4     2     2
 1.5101100000e-04     4     4     2     3
 8.4741165000e-03     4     4     2     5
-6.7219520000e-04     4     4     3     1
 1.5101100000e-04     4     4     3     2
 1.6340596810e-01     4     4     3     3
 1.2413890000e-04     4     4     3     5
-3.7313521700e-02     4     4     5     1
 8.4741165000e-03     4     4     5     2
 1.2413890000e-04     4     4     5     3
 1.7151366580e-01     4     4     5     5
-2.3240490000e-04     4     5     1     1
-8.6894800000e-05     4     5     1     2
 1.0630000000e-07     4     5     1     3
 3.7313521700e-02     4     5     1     4
-9.4289200000e-05     4     5     2     1
-2.9631200000e-04     4     5     2     2
 7.8700000000e-08     4     5     2     3
-8.4741165000e-03     4     5     2     4
-7.1000000000e-08     4     5     3     1
 1.3000000000e-08     4     5     3     2
-2.3843090000e-04     4     5     3     3
-1.2413890000e-04     4     5     3     4
-1.3138710000e-03     4     5     5     1
 2.8884610000e-04     4     5     5     2
 4.4966000000e-06     4     5     5     3
-1.7151366580e-01     4     5     5     4
-1.1525719100e-02     5     1     1     2
-1.2088920000e-04     5     1     1     3
 2.3240490000e-04     5     1     1     4
-1.4835318160e-01     5     1     1     5
-3.7283534800e-02     5     1     2     2
-4.5232300000e-05     5     1     2     3
 8.6894800000e-05     5     1     2     4
-8.8503476500e-02     5     1     2     5
 3.8711000000e-06     5     1     3     2
-3.7312985600e-02     5     1     3     3
-1.0630000000e-07     5     1     3     4
 6.8291540000e-04     5     1     3     5
-7.3944000000e-06     5     1     4     2
-1.7730000000e-07     5     1     4     3
-3.7313521700e-02     5     1     4     4
-1.3138710000e-03     5     1     4     5
 1.1525719100e-02     5     2     1     1
-4.9103400000e-05     5     2     1     3
 9.4289200000e-05     5     2     1     4
-8.8503476500e-02     5     2     1     5
 3.7283534800e-02     5     2     2     1
-1.5413090000e-04     5     2     2     3
 2.9631200000e-04     5     2     2     4
-1.6415559780e-01     5     2     2     5
-3.8711000000e-06     5     2     3     1
 8.4738724000e-03     5     2     3     3
-7.8700000000e-08     5     2     3     4
-1.4986030000e-04     5     2     3     5
 7.3944000000e-06     5     2     4     1
-6.5700000000e-08     5     2     4     3
 8.4741165000e-03     5     2     4     4
 2.8884610000e-04     5     2     4     5
 1.2088920000e-04     5     3     1     1
 4.9103400000e-05     5     3     1     2
 7.1000000000e-08     5     3     1     4
 6.8291540000e-04     5     3     1     5
 4.5232300000e-05     5     3     2     1
 1.5413090000e-04     5     3     2     2
-1.3000000000e-08     5     3     2     4
-1.4986030000e-04     5     3     2     5
 3.7312985600e-02     5     3     3     1
-8.4738724000e-03     5     3     3     2
 2.3843090000e-04     5     3     3     4
-1.7148444140e-01     5     3     3     5
 1.7730000000e-07     5     3     4     1
 6.5700000000e-08     5     3     4     2
 1.2413890000e-04     5     3     4     4
 4.4966000000e-06     5     3     4     5
-2.3240490000e-04     5     4     1     1
-9.4289200000e-05     5     4     1     2
-7.1000000000e-08     5     4     1     3
-1.3138710000e-03     5     4     1     5
-8.6894800000e-05     5     4     2     1
-2.9631200000e-04     5     4     2     2
 1.3000000000e-08     5     4     2     3
 2.8884610000e-04     5     4     2     5
 1.0630000000e-07     5     4     3     1
 7.8700000000e-08     5     4     3     2
-2.3843090000e-04     5     4     3     3
 4.4966000000e-06     5     4     3     5
 3.7313521700e-02     5     4     4     1
-8.4741165000e-03     5     4     4     2
-1.2413890000e-04     5     4     4     3
-1.7151366580e-01     5     4     4     5
 1.4835318160e-01     5     5     1     1
 8.8503476500e-02     5     5     1     2
-6.8291540000e-04     5     5     1     3
 1.3138710000e-03     5     5     1     4
 8.8503476500e-02     5     5     2     1
 1.6415559780e-01     5     5     2     2
 1.4986030000e-04     5     5     2     3
-2.8884610000e-04     5     5     2     4
-6.8291540000e-04     5     5     3     1
 1.4986030000e-04     5     5     3     2
 1.7148444140e-01     5     5     3     3
-4.4966000000e-06     5     5     3     4
 1.3138710000e-03     5     5     4     1
-2.8884610000e-04     5     5     4     2
-4.4966000000e-06     5     5     4     3
 1.7151366580e-01     5     5     4     4
0.0 0 0 0 0
 1.1291693360e-01     1     1     2     2
 2.0621920000e-04     1     1     2     3
-3.9720400000e-04     1     1     2     4
 1.1525719100e-02     1     1     2     5
 2.0621920000e-04     1     1     3     2
 1.4040996390e-01     1     1     3     3
-4.2819000000e-06     1     1     3     4
 1.2088920000e-04     1     1     3     5
-3.9720400000e-04     1     1     4     2
-4.2819000000e-06     1     1     4     3
 1.4043809820e-01     1     1     4     4
-2.3240490000e-04     1     1     4     5
 1.1525719100e-02     1     1     5     2
 1.2088920000e-04     1     1     5     3
-2.3240490000e-04     1     1     5     4
 1.4835318160e-01     1     1     5     5
-1.1291693360e-01     1     2     2     1
 6.7464070000e-04     1     2     2     3
-1.2983958000e-03     1     2     2     4
 3.7283534800e-02     1     2     2     5
-2.0621920000e-04     1     2     3     1
 8.5485808000e-02     1     2     3     3
-1.7297000000e-06     1     2     3     4
 4.5232300000e-05     1     2     3     5
 3.9720400000e-04     1     2     4     1
-1.8357000000e-06     1     2     4     3
 8.5497210300e-02     1     2     4     4
-8.6894800000e-05     1     2     4     5
-1.1525719100e-02     1     2     5     1
 4.9103400000e-05     1     2     5     3
-9.4289200000e-05     1     2     5     4
 8.8503476500e-02     1     2     5     5
-2.0621920000e-04     1     3     2     1
-6.7464070000e-04     1     3     2     2
 1.0600000000e-07     1     3     2     4
-3.8711000000e-06     1     3     2     5
-1.4040996390e-01     1     3     3     1
-8.5485808000e-02     1     3     3     2
-1.2933936000e-03     1     3     3     4
 3.7312985600e-02     1     3     3     5
 4.2819000000e-06     1     3     4     1
 1.8357000000e-06     1     3     4     2
-6.7219520000e-04     1     3     4     4
 1.0630000000e-07     1     3     4     5
-1.2088920000e-04     1     3     5     1
-4.9103400000e-05     1     3     5     2
-7.1000000000e-08     1     3     5     4
-6.8291540000e-04     1     3     5     5
 3.9720400000e-04     1     4     2     1
 1.2983958000e-03     1     4     2     2
-1.0600000000e-07     1     4     2     3
 7.3944000000e-06     1     4     2     5
 4.2819000000e-06     1     4     3     1
 1.7297000000e-06     1     4     3     2
 1.2933936000e-03     1     4     3     3
 1.7730000000e-07     1     4     3     5
-1.4043809820e-01     1     4     4     1
-8.5497210300e-02     1     4     4     2
 6.7219520000e-04     1     4     4     3
 3.7313521700e-02     1     4     4     5
 2.3240490000e-04     1     4     5     1
 9.4289200000e-05     1     4     5     2
 7.1000000000e-08     1     4     5     3
 1.3138710000e-03     1     4     5     5
-1.1525719100e-02     1     5     2     1
-3.7283534800e-02     1     5     2     2
 3.8711000000e-06     1     5     2     3
-7.3944000000e-06     1     5     2     4
-1.2088920000e-04     1     5     3     1
-4.5232300000e-05     1     5     3     2
-3.7312985600e-02     1     5     3     3
-1.7730000000e-07     1     5     3     4
 2.3240490000e-04     1     5     4     1
 8.6894800000e-05     1     5     4     2
-1.0630000000e-07     1     5     4     3
-3.7313521700e-02     1     5     4     4
-1.4835318160e-01     1     5     5     1
-8.8503476500e-02     1     5     5     2
 6.8291540000e-04     1     5     5     3
-1.3138710000e-03     1     5     5     4
-1.1291693360e-01     2     1     1     2
-2.0621920000e-04     2     1     1     3
 3.9720400000e-04     2     1     1     4
-1.1525719100e-02     2     1     1     5
 6.7464070000e-04     2     1     3     2
 8.5485808000e-02     2     1     3     3
-1.8357000000e-06     2     1     3     4
 4.9103400000e-05     2     1     3     5
-1.2983958000e-03     2     1     4     2
-1.7297000000e-06     2     1     4     3
 8.5497210300e-02     2     1     4     4
-9.4289200000e-05     2     1     4     5
 3.7283534800e-02     2     1     5     2
 4.5232300000e-05     2     1     5     3
-8.6894800000e-05     2     1     5     4
 8.8503476500e-02     2     1     5     5
 1.1291693360e-01     2     2     1     1
-6.7464070000e-04     2     2     1     3
 1.2983958000e-03     2     2     1     4
-3.7283534800e-02     2     2     1     5
-6.7464070000e-04     2     2     3     1
 1.5419468820e-01     2     2     3     3
-5.4993000000e-06     2     2     3     4
 1.5413090000e-04     2     2     3     5
 1.2983958000e-03     2     2     4     1
-5.4993000000e-06     2     2     4     3
 1.5422749630e-01     2     2     4     4
-2.9631200000e-04     2     2     4     5
-3.7283534800e-02     2     2     5     1
 1.5413090000e-04     2     2     5     3
-2.9631200000e-04     2     2     5     4
 1.6415559780e-01     2     2     5     5
 2.0621920000e-04     2     3     1     1
 6.7464070000e-04     2     3     1     2
-1.0600000000e-07     2     3     1     4
 3.8711000000e-06     2     3     1     5
-8.5485808000e-02     2     3     3     1
-1.5419468820e-01     2     3     3     2
 2.9097110000e-04     2     3     3     4
-8.4738724000e-03     2     3     3     5
 1.7297000000e-06     2     3     4     1
 5.4993000000e-06     2     3     4     2
 1.5101100000e-04     2     3     4     4
 7.8700000000e-08     2     3     4     5
-4.5232300000e-05     2     3     5     1
-1.5413090000e-04     2     3     5     2
 1.3000000000e-08     2     3     5     4
 1.4986030000e-04     2     3     5     5
-3.9720400000e-04     2     4     1     1
-1.2983958000e-03     2     4     1     2
 1.0600000000e-07     2     4     1     3
-7.3944000000e-06     2     4     1     5
 1.8357000000e-06     2     4     3     1
 5.4993000000e-06     2     4     3     2
-2.9097110000e-04     2     4     3     3
 6.5700000000e-08     2     4     3     5
-8.5497210300e-02     2     4     4     1
-1.5422749630e-01     2     4     4     2
-1.5101100000e-04     2     4     4     3
-8.4741165000e-03     2     4     4     5
 8.6894800000e-05     2     4     5     1
 2.9631200000e-04     2     4     5     2
-1.3000000000e-08     2     4     5     3
-2.8884610000e-04     2     4     5     5
 1.1525719100e-02     2     5     1     1
 3.7283534800e-02     2     5     1     2
-3.8711000000e-06     2     5     1     3
 7.3944000000e-06     2     5     1     4
-4.9103400000e-05     2     5     3     1
-1.5413090000e-04     2     5     3     2
 8.4738724000e-03     2     5     3     3
-6.5700000000e-08     2     5     3     4
 9.4289200000e-05     2     5     4     1
 2.9631200000e-04     2     5     4     2
-7.8700000000e-08     2     5     4     3
 8.4741165000e-03     2     5     4     4
-8.8503476500e-02     2     5     5     1
-1.6415559780e-01     2     5     5     2
-1.4986030000e-04     2     5     5     3
 2.8884610000e-04     2     5     5     4
-2.0621920000e-04     3     1     1     2
-1.4040996390e-01     3     1     1     3
 4.2819000000e-06     3     1     1     4
-1.2088920000e-04     3     1     1     5
-6.7464070000e-04     3     1     2     2
-8.5485808000e-02     3     1     2     3
 1.8357000000e-06     3     1     2     4
-4.9103400000e-05     3     1     2     5
 1.0600000000e-07     3     1     4     2
-1.2933936000e-03     3     1     4     3
-6.7219520000e-04     3     1     4     4
-7.1000000000e-08     3     1     4     5
-3.8711000000e-06     3     1     5     2
 3.7312985600e-02     3     1     5     3
 1.0630000000e-07     3     1     5     4
-6.8291540000e-04     3     1     5     5
 2.0621920000e-04     3     2     1     1
-8.5485808000e-02     3     2     1     3
 1.7297000000e-06     3     2     1     4
-4.5232300000e-05     3     2     1     5
 6.7464070000e-04     3     2     2     1
-1.5419468820e-01     3     2     2     3
 5.4993000000e-06     3     2     2     4
-1.5413090000e-04     3     2     2     5
-1.0600000000e-07     3     2     4     1
 2.9097110000e-04     3     2     4     3
 1.5101100000e-04     3     2     4     4
 1.3000000000e-08     3     2     4     5
 3.8711000000e-06     3     2     5     1
-8.4738724000e-03     3     2     5     3
 7.8700000000e-08     3     2     5     4
 1.4986030000e-04     3     2     5     5
 1.4040996390e-01     3     3     1     1
 8.5485808000e-02     3     3     1     2
 1.2933936000e-03     3     3     1     4
-3.7312985600e-02     3     3     1     5
 8.5485808000e-02     3     3     2     1
 1.5419468820e-01     3     3     2     2
-2.9097110000e-04     3     3     2     4
 8.4738724000e-03     3     3     2     5
 1.2933936000e-03     3     3     4     1
-2.9097110000e-04     3     3     4     2
 1.6340596810e-01     3     3     4     4
-2.3843090000e-04     3     3     4     5
-3.7312985600e-02     3     3     5     1
 8.4738724000e-03     3     3     5     2
-2.3843090000e-04     3     3     5     4
 1.7148444140e-01     3     3     5     5
-4.2819000000e-06     3     4     1     1
-1.7297000000e-06     3     4     1     2
-1.2933936000e-03     3     4     1     3
-1.7730000000e-07     3     4     1     5
-1.8357000000e-06     3     4     2     1
-5.4993000000e-06     3     4     2     2
 2.9097110000e-04     3     4     2     3
-6.5700000000e-08     3     4     2     5
 6.7219520000e-04     3     4     4     1
-1.5101100000e-04     3     4     4     2
-1.6340596810e-01     3     4     4     3
-1.2413890000e-04     3     4     4     5
-1.0630000000e-07     3     4     5     1
-7.8700000000e-08     3     4     5     2
 2.3843090000e-04     3     4     5     3
-4.4966000000e-06     3     4     5     5
 1.2088920000e-04     3     5     1     1
 4.5232300000e-05     3     5     1     2
 3.7312985600e-02     3     5     1     3
 1.7730000000e-07     3     5     1     4
 4.9103400000e-05     3     5     2     1
 1.5413090000e-04     3     5     2     2
-8.4738724000e-03     3     5     2     3
 6.5700000000e-08     3     5     2     4
 7.1000000000e-08     3     5     4     1
-1.3000000000e-08     3     5     4     2
 2.3843090000e-04     3     5     4     3
 1.2413890000e-04     3     5     4     4
 6.8291540000e-04     3     5     5     1
-1.4986030000e-04     3     5     5     2
-1.7148444140e-01     3     5     5     3
 4.4966000000e-06     3     5     5     4
 3.9720400000e-04     4     1     1     2
 4.2819000000e-06     4     1     1     3
-1.4043809820e-01     4     1     1     4
 2.3240490000e-04     4     1     1     5
 1.2983958000e-03     4     1     2     2
 1.7297000000e-06     4     1     2     3
-8.5497210300e-02     4     1     2     4
 9.4289200000e-05     4     1     2     5
-1.0600000000e-07     4     1     3     2
 1.2933936000e-03     4     1     3     3
 6.7219520000e-04     4     1     3     4
 7.1000000000e-08     4     1     3     5
 7.3944000000e-06     4     1     5     2
 1.7730000000e-07     4     1     5     3
 3.7313521700e-02     4     1     5     4
 1.3138710000e-03     4     1     5     5
-3.9720400000e-04     4     2     1     1
 1.8357000000e-06     4     2     1     3
-8.5497210300e-02     4     2     1     4
 8.6894800000e-05     4     2     1     5
-1.2983958000e-03     4     2     2     1
 5.4993000000e-06     4     2     2     3
-1.5422749630e-01     4     2     2     4
 2.9631200000e-04     4     2     2     5
 1.0600000000e-07     4     2     3     1
-2.9097110000e-04     4     2     3     3
-1.5101100000e-04     4     2     3     4
-1.3000000000e-08     4     2     3     5
-7.3944000000e-06     4     2     5     1
 6.5700000000e-08     4     2     5     3
-8.4741165000e-03     4     2     5     4
-2.8884610000e-04     4     2     5     5
-4.2819000000e-06     4     3     1     1
-1.8357000000e-06     4     3     1     2
 6.7219520000e-04     4     3     1     4
-1.0630000000e-07     4     3     1     5
-1.7297000000e-06     4     3     2     1
-5.4993000000e-06     4     3     2     2
-1.5101100000e-04     4     3     2     4
-7.8700000000e-08     4     3     2     5
-1.2933936000e-03     4     3     3     1
 2.9097110000e-04     4     3     3     2
-1.6340596810e-01     4     3     3     4
 2.3843090000e-04     4     3     3     5
-1.7730000000e-07     4     3     5     1
-6.5700000000e-08     4     3     5     2
-1.2413890000e-04     4     3     5     4
-4.4966000000e-06     4     3     5     5
 1.4043809820e-01     4     4     1     1
 8.5497210300e-02     4     4     1     2
-6.7219520000e-04     4     4     1     3
-3.7313521700e-02     4     4     1     5
 8.5497210300e-02     4     4     2     1
 1.5422749630e-01     4     4     2     2
 1.5101100000e-04     4     4     2     3
 8.4741165000e-03     4     4     2     5
-6.7219520000e-04     4     4     3     1
 1.5101100000e-04     4     4     3     2
 1.6340596810e-01     4     4     3     3
 1.2413890000e-04     4     4     3     5
-3.7313521700e-02     4     4     5     1
 8.4741165000e-03     4     4     5     2
 1.2413890000e-04     4     4     5     3
 1.7151366580e-01     4     4     5     5
-2.3240490000e-04     4     5     1     1
-8.6894800000e-05     4     5     1     2
 1.0630000000e-07     4     5     1     3
 3.7313521700e-02     4     5     1     4
-9.4289200000e-05     4     5     2     1
-2.9631200000e-04     4     5     2     2
 7.8700000000e-08     4     5     2     3
-8.4741165000e-03     4     5     2     4