&FCI NORB=  5,NELEC=  2,MS2=0,
 ORBSYM=1,1,1,1,1
 ISYM=1,
&END
 1.2744630630e-01     1     1     2     2
 2.3056000000e-06     1     1     2     3
 2.2790000000e-06     1     1     2     4
-9.4961272000e-03     1     1     2     5
 2.3056000000e-06     1     1     3     2
 1.5741885180e-01     1     1     3     3
-9.0000000000e-10     1     1     3     4
-3.7686000000e-06     1     1     3     5
 2.2790000000e-06     1     1     4     2
-9.0000000000e-10     1     1     4     3
 1.5741846230e-01     1     1     4     4
-4.0102000000e-06     1     1     4     5
-9.4961272000e-03     1     1     5     2
-3.7686000000e-06     1     1     5     3
-4.0102000000e-06     1     1     5     4
 1.7867661990e-01     1     1     5     5
-1.2744630630e-01     1     2     2     1
 5.2016000000e-06     1     2     2     3
 5.1043000000e-06     1     2     2     4
-2.1281235200e-02     1     2     2     5
-2.3056000000e-06     1     2     3     1
 9.6291722000e-02     1     2     3     3
-9.9000000000e-09     1     2     3     4
-4.4080000000e-07     1     2     3     5
-2.2790000000e-06     1     2     4     1
 8.6000000000e-09     1     2     4     3
 9.6291608600e-02     1     2     4     4
-5.8810000000e-07     1     2     4     5
 9.4961272000e-03     1     2     5     1
-6.5340000000e-07     1     2     5     3
-6.9600000000e-07     1     2     5     4
 1.0095205600e-01     1     2     5     5
-2.3056000000e-06     1     3     2     1
-5.2016000000e-06     1     3     2     2
-1.8500000000e-08     1     3     2     4
 2.1260000000e-07     1     3     2     5
-1.5741885180e-01     1     3     3     1
-9.6291722000e-02     1     3     3     2
 4.6668000000e-06     1     3     3     4
-1.9896572000e-02     1     3     3     5
 9.0000000000e-10     1     3     4     1
-8.6000000000e-09     1     3     4     2
-4.7627000000e-06     1     3     4     4
 4.2000000000e-09     1     3     4     5
 3.7686000000e-06     1     3     5     1
 6.5340000000e-07     1     3     5     2
-3.6000000000e-09     1     3     5     4
-5.2609000000e-06     1     3     5     5
-2.2790000000e-06     1     4     2     1
-5.1043000000e-06     1     4     2     2
 1.8500000000e-08     1     4     2     3
 1.0790000000e-07     1     4     2     5
 9.0000000000e-10     1     4     3     1
 9.9000000000e-09     1     4     3     2
-4.6668000000e-06     1     4     3     3
 7.8000000000e-09     1     4     3     5
-1.5741846230e-01     1     4     4     1
-9.6291608600e-02     1     4     4     2
 4.7627000000e-06     1     4     4     3
-1.9896590100e-02     1     4     4     5
 4.0102000000e-06     1     4     5     1
 6.9600000000e-07     1     4     5     2
 3.6000000000e-09     1     4     5     3
-5.1277000000e-06     1     4     5     5
 9.4961272000e-03     1     5     2     1
 2.1281235200e-02     1     5     2     2
-2.1260000000e-07     1     5     2     3
-1.0790000000e-07     1     5     2     4
 3.7686000000e-06     1     5     3     1
 4.4080000000e-07     1     5     3     2
 1.9896572000e-02     1     5     3     3
-7.8000000000e-09     1     5     3     4
 4.0102000000e-06     1     5     4     1
 5.8810000000e-07     1     5     4     2
-4.2000000000e-09     1     5     4     3
 1.9896590100e-02     1     5     4     4
-1.7867661990e-01     1     5     5     1
-1.0095205600e-01     1     5     5     2
 5.2609000000e-06     1     5     5     3
 5.1277000000e-06     1     5     5     4
-1.2744630630e-01     2     1     1     2
-2.3056000000e-06     2     1     1     3
-2.2790000000e-06     2     1     1     4
 9.4961272000e-03     2     1     1     5
 5.2016000000e-06     2     1     3     2
 9.6291722000e-02     2     1     3     3
 8.6000000000e-09     2     1     3     4
-6.5340000000e-07     2     1     3     5
 5.1043000000e-06     2     1     4     2
-9.9000000000e-09     2     1     4     3
 9.6291608600e-02     2     1     4     4
-6.9600000000e-07     2     1     4     5
-2.1281235200e-02     2     1     5     2
-4.4080000000e-07     2     1     5     3
-5.8810000000e-07     2     1     5     4
 1.0095205600e-01     2     1     5     5
 1.2744630630e-01     2     2     1     1
-5.2016000000e-06     2     2     1     3
-5.1043000000e-06     2     2     1     4
 2.1281235200e-02     2     2     1     5
-5.2016000000e-06     2     2     3     1
 1.6691618470e-01     2     2     3     3
-1.4000000000e-09     2     2     3     4
-3.3111000000e-06     2     2     3     5
-5.1043000000e-06     2     2     4     1
-1.4000000000e-09     2     2     4     3
 1.6691574220e-01     2     2     4     4
-3.5919000000e-06     2     2     4     5
 2.1281235200e-02     2     2     5     1
-3.3111000000e-06     2     2     5     3
-3.5919000000e-06     2     2     5     4
 1.8698571030e-01     2     2     5     5
 2.3056000000e-06     2     3     1     1
 5.2016000000e-06     2     3     1     2
 1.8500000000e-08     2     3     1     4
-2.1260000000e-07     2     3     1     5
-9.6291722000e-02     2     3     3     1
-1.6691618470e-01     2     3     3     2
-1.5712000000e-06     2     3     3     4
 6.4615459000e-03     2     3     3     5
 9.9000000000e-09     2     3     4     1
 1.4000000000e-09     2     3     4     2
 1.5823000000e-06     2     3     4     4
 1.4000000000e-09     2     3     4     5
 4.4080000000e-07     2     3     5     1
 3.3111000000e-06     2     3     5     2
 2.7000000000e-09     2     3     5     4
 1.5449000000e-06     2     3     5     5
 2.2790000000e-06     2     4     1     1
 5.1043000000e-06     2     4     1     2
-1.8500000000e-08     2     4     1     3
-1.0790000000e-07     2     4     1     5
-8.6000000000e-09     2     4     3     1
 1.4000000000e-09     2     4     3     2
 1.5712000000e-06     2     4     3     3
-1.3000000000e-09     2     4     3     5
-9.6291608600e-02     2     4     4     1
-1.6691574220e-01     2     4     4     2
-1.5823000000e-06     2     4     4     3
 6.4615287000e-03     2     4     4     5
 5.8810000000e-07     2     4     5     1
 3.5919000000e-06     2     4     5     2
-2.7000000000e-09     2     4     5     3
 1.5429000000e-06     2     4     5     5
-9.4961272000e-03     2     5     1     1
-2.1281235200e-02     2     5     1     2
 2.1260000000e-07     2     5     1     3
 1.0790000000e-07     2     5     1     4
 6.5340000000e-07     2     5     3     1
 3.3111000000e-06     2     5     3     2
-6.4615459000e-03     2     5     3     3
 1.3000000000e-09     2     5     3     4
 6.9600000000e-07     2     5     4     1
 3.5919000000e-06     2     5     4     2
-1.4000000000e-09     2     5     4     3
-6.4615287000e-03     2     5     4     4
-1.0095205600e-01     2     5     5     1
-1.8698571030e-01     2     5     5     2
-1.5449000000e-06     2     5     5     3
-1.5429000000e-06     2     5     5     4
-2.3056000000e-06     3     1     1     2
-1.5741885180e-01     3     1     1     3
 9.0000000000e-10     3     1     1     4
 3.7686000000e-06     3     1     1     5
-5.2016000000e-06     3     1     2     2
-9.6291722000e-02     3     1     2     3
-8.6000000000e-09     3     1     2     4
 6.5340000000e-07     3     1     2     5
-1.8500000000e-08     3     1     4     2
 4.6668000000e-06     3     1     4     3
-4.7627000000e-06     3     1     4     4
-3.6000000000e-09     3     1     4     5
 2.1260000000e-07     3     1     5     2
-1.9896572000e-02     3     1     5     3
 4.2000000000e-09     3     1     5     4
-5.2609000000e-06     3     1     5     5
 2.3056000000e-06     3     2     1     1
-9.6291722000e-02     3     2     1     3
 9.9000000000e-09     3     2     1     4
 4.4080000000e-07     3     2     1     5
 5.2016000000e-06     3     2     2     1
-1.6691618470e-01     3     2     2     3
 1.4000000000e-09     3     2     2     4
 3.3111000000e-06     3     2     2     5
 1.8500000000e-08     3     2     4     1
-1.5712000000e-06     3     2     4     3
 1.5823000000e-06     3     2     4     4
 2.7000000000e-09     3     2     4     5
-2.1260000000e-07     3     2     5     1
 6.4615459000e-03     3     2     5     3
 1.4000000000e-09     3     2     5     4
 1.5449000000e-06     3     2     5     5
 1.5741885180e-01     3     3     1     1
 9.6291722000e-02     3     3     1     2
-4.6668000000e-06     3     3     1     4
 1.9896572000e-02     3     3     1     5
 9.6291722000e-02     3     3     2     1
 1.6691618470e-01     3     3     2     2
 1.5712000000e-06     3     3     2     4
-6.4615459000e-03     3     3     2     5
-4.6668000000e-06     3     3     4     1
 1.5712000000e-06     3     3     4     2
 1.8100172680e-01     3     3     4     4
-3.1068000000e-06     3     3     4     5
 1.9896572000e-02     3     3     5     1
-6.4615459000e-03     3     3     5     2
-3.1068000000e-06     3     3     5     4
 1.9853062920e-01     3     3     5     5
-9.0000000000e-10     3     4     1     1
-9.9000000000e-09     3     4     1     2
 4.6668000000e-06     3     4     1     3
-7.8000000000e-09     3     4     1     5
 8.6000000000e-09     3     4     2     1
-1.4000000000e-09     3     4     2     2
-1.5712000000e-06     3     4     2     3
 1.3000000000e-09     3     4     2     5
 4.7627000000e-06     3     4     4     1
-1.5823000000e-06     3     4     4     2
-1.8100172680e-01     3     4     4     3
 2.8790000000e-06     3     4     4     5
-4.2000000000e-09     3     4     5     1
-1.4000000000e-09     3     4     5     2
 3.1068000000e-06     3     4     5     3
-3.1000000000e-09     3     4     5     5
-3.7686000000e-06     3     5     1     1
-4.4080000000e-07     3     5     1     2
-1.9896572000e-02     3     5     1     3
 7.8000000000e-09     3     5     1     4
-6.5340000000e-07     3     5     2     1
-3.3111000000e-06     3     5     2     2
 6.4615459000e-03     3     5     2     3
-1.3000000000e-09     3     5     2     4
 3.6000000000e-09     3     5     4     1
-2.7000000000e-09     3     5     4     2
 3.1068000000e-06     3     5     4     3
-2.8790000000e-06     3     5     4     4
 5.2609000000e-06     3     5     5     1
-1.5449000000e-06     3     5     5     2
-1.9853062920e-01     3     5     5     3
 3.1000000000e-09     3     5     5     4
-2.2790000000e-06     4     1     1     2
 9.0000000000e-10     4     1     1     3
-1.5741846230e-01     4     1     1     4
 4.0102000000e-06     4     1     1     5
-5.1043000000e-06     4     1     2     2
 9.9000000000e-09     4     1     2     3
-9.6291608600e-02     4     1     2     4
 6.9600000000e-07     4     1     2     5
 1.8500000000e-08     4     1     3     2
-4.6668000000e-06     4     1     3     3
 4.7627000000e-06     4     1     3     4
 3.6000000000e-09     4     1     3     5
 1.0790000000e-07     4     1     5     2
 7.8000000000e-09     4     1     5     3
-1.9896590100e-02     4     1     5     4
-5.1277000000e-06     4     1     5     5
 2.2790000000e-06     4     2     1     1
-8.6000000000e-09     4     2     1     3
-9.6291608600e-02     4     2     1     4
 5.8810000000e-07     4     2     1     5
 5.1043000000e-06     4     2     2     1
 1.4000000000e-09     4     2     2     3
-1.6691574220e-01     4     2     2     4
 3.5919000000e-06     4     2     2     5
-1.8500000000e-08     4     2     3     1
 1.5712000000e-06     4     2     3     3
-1.5823000000e-06     4     2     3     4
-2.7000000000e-09     4     2     3     5
-1.0790000000e-07     4     2     5     1
-1.3000000000e-09     4     2     5     3
 6.4615287000e-03     4     2     5     4
 1.5429000000e-06     4     2     5     5
-9.0000000000e-10     4     3     1     1
 8.6000000000e-09     4     3     1     2
 4.7627000000e-06     4     3     1     4
-4.2000000000e-09     4     3     1     5
-9.9000000000e-09     4     3     2     1
-1.4000000000e-09     4     3     2     2
-1.5823000000e-06     4     3     2     4
-1.4000000000e-09     4     3     2     5
 4.6668000000e-06     4     3     3     1
-1.5712000000e-06     4     3     3     2
-1.8100172680e-01     4     3     3     4
 3.1068000000e-06     4     3     3     5
-7.8000000000e-09     4     3     5     1
 1.3000000000e-09     4     3     5     2
 2.8790000000e-06     4     3     5     4
-3.1000000000e-09     4     3     5     5
 1.5741846230e-01     4     4     1     1
 9.6291608600e-02     4     4     1     2
-4.7627000000e-06     4     4     1     3
 1.9896590100e-02     4     4     1     5
 9.6291608600e-02     4     4     2     1
 1.6691574220e-01     4     4     2     2
 1.5823000000e-06     4     4     2     3
-6.4615287000e-03     4     4     2     5
-4.7627000000e-06     4     4     3     1
 1.5823000000e-06     4     4     3     2
 1.8100172680e-01     4     4     3     3
-2.8790000000e-06     4     4     3     5
 1.9896590100e-02     4     4     5     1
-6.4615287000e-03     4     4     5     2
-2.8790000000e-06     4     4     5     3
 1.9853020810e-01     4     4     5     5
-4.0102000000e-06     4     5     1     1
-5.8810000000e-07     4     5     1     2
 4.2000000000e-09     4     5     1     3
-1.9896590100e-02     4     5     1     4
-6.9600000000e-07     4     5     2     1
-3.5919000000e-06     4     5     2     2
 1.4000000000e-09     4     5     2     3
 6.4615287000e-03     4     5     2     4
-3.6000000000e-09     4     5     3     1
 2.7000000000e-09     4     5     3     2
-3.1068000000e-06     4     5     3     3
 2.8790000000e-06     4     5     3     4
 5.1277000000e-06     4     5     5     1
-1.5429000000e-06     4     5     5     2
 3.1000000000e-09     4     5     5     3
-1.9853020810e-01     4     5     5     4
 9.4961272000e-03     5     1     1     2
 3.7686000000e-06     5     1     1     3
 4.0102000000e-06     5     1     1     4
-1.7867661990e-01     5     1     1     5
 2.1281235200e-02     5     1     2     2
 4.4080000000e-07     5     1     2     3
 5.8810000000e-07     5     1     2     4
-1.0095205600e-01     5     1     2     5
-2.1260000000e-07     5     1     3     2
 1.9896572000e-02     5     1     3     3
-4.2000000000e-09     5     1     3     4
 5.2609000000e-06     5     1     3     5
-1.0790000000e-07     5     1     4     2
-7.8000000000e-09     5     1     4     3
 1.9896590100e-02     5     1     4     4
 5.1277000000e-06     5     1     4     5
-9.4961272000e-03     5     2     1     1
 6.5340000000e-07     5     2     1     3
 6.9600000000e-07     5     2     1     4
-1.0095205600e-01     5     2     1     5
-2.1281235200e-02     5     2     2     1
 3.3111000000e-06     5     2     2     3
 3.5919000000e-06     5     2     2     4
-1.8698571030e-01     5     2     2     5
 2.1260000000e-07     5     2     3     1
-6.4615459000e-03     5     2     3     3
-1.4000000000e-09     5     2     3     4
-1.5449000000e-06     5     2     3     5
 1.0790000000e-07     5     2     4     1
 1.3000000000e-09     5     2     4     3
-6.4615287000e-03     5     2     4     4
-1.5429000000e-06     5     2     4     5
-3.7686000000e-06     5     3     1     1
-6.5340000000e-07     5     3     1     2
 3.6000000000e-09     5     3     1     4
 5.2609000000e-06     5     3     1     5
-4.4080000000e-07     5     3     2     1
-3.3111000000e-06     5     3     2     2
-2.7000000000e-09     5     3     2     4
-1.5449000000e-06     5     3     2     5
-1.9896572000e-02     5     3     3     1
 6.4615459000e-03     5     3     3     2
 3.1068000000e-06     5     3     3     4
-1.9853062920e-01     5     3     3     5
 7.8000000000e-09     5     3     4     1
-1.3000000000e-09     5     3     4     2
-2.8790000000e-06     5     3     4     4
 3.1000000000e-09     5     3     4     5
-4.0102000000e-06     5     4     1     1
-6.9600000000e-07     5     4     1     2
-3.6000000000e-09     5     4     1     3
 5.1277000000e-06     5     4     1     5
-5.8810000000e-07     5     4     2     1
-3.5919000000e-06     5     4     2     2
 2.7000000000e-09     5     4     2     3
-1.5429000000e-06     5     4     2     5
 4.2000000000e-09     5     4     3     1
 1.4000000000e-09     5     4     3     2
-3.1068000000e-06     5     4     3     3
 3.1000000000e-09     5     4     3     5
-1.9896590100e-02     5     4     4     1
 6.4615287000e-03     5     4     4     2
 2.8790000000e-06     5     4     4     3
-1.9853020810e-01     5     4     4     5
 1.7867661990e-01     5     5     1     1
 1.0095205600e-01     5     5     1     2
-5.2609000000e-06     5     5     1     3
-5.1277000000e-06     5     5     1     4
 1.0095205600e-01     5     5     2     1
 1.8698571030e-01     5     5     2     2
 1.5449000000e-06     5     5     2     3
 1.5429000000e-06     5     5     2     4
-5.2609000000e-06     5     5     3     1
 1.5449000000e-06     5     5     3     2
 1.9853062920e-01     5     5     3     3
-3.1000000000e-09     5     5     3     4
-5.1277000000e-06     5     5     4     1
 1.5429000000e-06     5     5     4     2
-3.1000000000e-09     5     5     4     3
 1.9853020810e-01     5     5     4     4
0.0 0 0 0 0
 1.2744630630e-01     1     1     2     2
 2.3056000000e-06     1     1     2     3
 2.2790000000e-06     1     1     2     4
-9.4961272000e-03     1     1     2     5
 2.3056000000e-06     1     1     3     2
 1.5741885180e-01     1     1     3     3
-9.0000000000e-10     1     1     3     4
-3.7686000000e-06     1     1     3     5
 2.2790000000e-06     1     1     4     2
-9.0000000000e-10     1     1     4     3
 1.5741846230e-01     1     1     4     4
-4.0102000000e-06     1     1     4     5
-9.4961272000e-03     1     1     5     2
-3.7686000000e-06     1     1     5     3
-4.0102000000e-06     1     1     5     4
 1.7867661990e-01     1     1     5     5
-1.2744630630e-01     1     2     2     1
 5.2016000000e-06     1     2     2     3
 5.1043000000e-06     1     2     2     4
-2.1281235200e-02     1     2     2     5
-2.3056000000e-06     1     2     3     1
 9.6291722000e-02     1     2     3     3
-9.9000000000e-09     1     2     3     4
-4.4080000000e-07     1     2     3     5
-2.2790000000e-06     1     2     4     1
 8.6000000000e-09     1     2     4     3
 9.6291608600e-02     1     2     4     4
-5.8810000000e-07     1     2     4     5
 9.4961272000e-03     1     2     5     1
-6.5340000000e-07     1     2     5     3
-6.9600000000e-07     1     2     5     4
 1.0095205600e-01     1     2     5     5
-2.3056000000e-06     1     3     2     1
-5.2016000000e-06     1     3     2     2
-1.8500000000e-08     1     3     2     4
 2.1260000000e-07     1     3     2     5
-1.5741885180e-01     1     3     3     1
-9.6291722000e-02     1     3     3     2
 4.6668000000e-06     1     3     3     4
-1.9896572000e-02     1     3     3     5
 9.0000000000e-10     1     3     4     1
-8.6000000000e-09     1     3     4     2
-4.7627000000e-06     1     3     4     4
 4.2000000000e-09     1     3     4     5
 3.7686000000e-06     1     3     5     1
 6.5340000000e-07     1     3     5     2
-3.6000000000e-09     1     3     5     4
-5.2609000000e-06     1     3     5     5
-2.2790000000e-06     1     4     2     1
-5.1043000000e-06     1     4     2     2
 1.8500000000e-08     1     4     2     3
 1.0790000000e-07     1     4     2     5
 9.0000000000e-10     1     4     3     1
 9.9000000000e-09     1     4     3     2
-4.6668000000e-06     1     4     3     3
 7.8000000000e-09     1     4     3     5
-1.5741846230e-01     1     4     4     1
-9.6291608600e-02     1     4     4     2
 4.7627000000e-06     1     4     4     3
-1.9896590100e-02     1     4     4     5
 4.0102000000e-06     1     4     5     1
 6.9600000000e-07     1     4     5     2
 3.6000000000e-09     1     4     5     3
-5.1277000000e-06     1     4     5     5
 9.4961272000e-03     1     5     2     1
 2.1281235200e-02     1     5     2     2
-2.1260000000e-07     1     5     2     3
-1.0790000000e-07     1     5     2     4
 3.7686000000e-06     1     5     3     1
 4.4080000000e-07     1     5     3     2
 1.9896572000e-02     1     5     3     3
-7.8000000000e-09     1     5     3     4
 4.0102000000e-06     1     5     4     1
 5.8810000000e-07     1     5     4     2
-4.2000000000e-09     1     5     4     3
 1.9896590100e-02     1     5     4     4
-1.7867661990e-01     1     5     5     1
-1.0095205600e-01     1     5     5     2
 5.2609000000e-06     1     5     5     3
 5.1277000000e-06     1     5     5     4
-1.2744630630e-01     2     1     1     2
-2.3056000000e-06     2     1     1     3
-2.2790000000e-06     2     1     1     4
 9.4961272000e-03     2     1     1     5
 5.2016000000e-06     2     1     3     2
 9.6291722000e-02     2     1     3     3
 8.6000000000e-09     2     1     3     4
-6.5340000000e-07     2     1     3     5
 5.1043000000e-06     2     1     4     2
-9.9000000000e-09     2     1     4     3
 9.6291608600e-02     2     1     4     4
-6.9600000000e-07     2     1     4     5
-2.1281235200e-02     2     1     5     2
-4.4080000000e-07     2     1     5     3
-5.8810000000e-07     2     1     5     4
 1.0095205600e-01     2     1     5     5
 1.2744630630e-01     2     2     1     1
-5.2016000000e-06     2     2     1     3
-5.1043000000e-06     2     2     1     4
 2.1281235200e-02     2     2     1     5
-5.2016000000e-06     2     2     3     1
 1.6691618470e-01     2     2     3     3
-1.4000000000e-09     2     2     3     4
-3.3111000000e-06     2     2     3     5
-5.1043000000e-06     2     2     4     1
-1.4000000000e-09     2     2     4     3
 1.6691574220e-01     2     2     4     4
-3.5919000000e-06     2     2     4     5
 2.1281235200e-02     2     2     5     1
-3.3111000000e-06     2     2     5     3
-3.5919000000e-06     2     2     5     4
 1.8698571030e-01     2     2     5     5
 2.3056000000e-06     2     3     1     1
 5.2016000000e-06     2     3     1     2
 1.8500000000e-08     2     3     1     4
-2.1260000000e-07     2     3     1     5
-9.6291722000e-02     2     3     3     1
-1.6691618470e-01     2     3     3     2
-1.5712000000e-06     2     3     3     4
 6.4615459000e-03     2     3     3     5
 9.9000000000e-09     2     3     4     1
 1.4000000000e-09     2     3     4     2
 1.5823000000e-06     2     3     4     4
 1.4000000000e-09     2     3     4     5
 4.4080000000e-07     2     3     5     1
 3.3111000000e-06     2     3     5     2
 2.7000000000e-09     2     3     5     4
 1.5449000000e-06     2     3     5     5
 2.2790000000e-06     2     4     1     1
 5.1043000000e-06     2     4     1     2
-1.8500000000e-08     2     4     1     3
-1.0790000000e-07     2     4     1     5
-8.6000000000e-09     2     4     3     1
 1.4000000000e-09     2     4     3     2
 1.5712000000e-06     2     4     3     3
-1.3000000000e-09     2     4     3     5
-9.6291608600e-02     2     4     4     1
-1.6691574220e-01     2     4     4     2
-1.5823000000e-06     2     4     4     3
 6.4615287000e-03     2     4     4     5
 5.8810000000e-07     2     4     5     1
 3.5919000000e-06     2     4     5     2
-2.7000000000e-09     2     4     5     3
 1.5429000000e-06     2     4     5     5
-9.4961272000e-03     2     5     1     1
-2.1281235200e-02     2     5     1     2
 2.1260000000e-07     2     5     1     3
 1.0790000000e-07     2     5     1     4
 6.5340000000e-07     2     5     3     1
 3.3111000000e-06     2     5     3     2
-6.4615459000e-03     2     5     3     3
 1.3000000000e-09     2     5     3     4
 6.9600000000e-07     2     5     4     1
 3.5919000000e-06     2     5     4     2
-1.4000000000e-09     2     5     4     3
-6.4615287000e-03     2     5     4     4
-1.0095205600e-01     2     5     5     1
-1.8698571030e-01     2     5     5     2
-1.5449000000e-06     2     5     5     3
-1.5429000000e-06     2     5     5     4
-2.3056000000e-06     3     1     1     2
-1.5741885180e-01     3     1     1     3
 9.0000000000e-10     3     1     1     4
 3.7686000000e-06     3     1     1     5
-5.2016000000e-06     3     1     2     2
-9.6291722000e-02     3     1     2     3
-8.6000000000e-09     3     1     2     4
 6.5340000000e-07     3     1     2     5
-1.8500000000e-08     3     1     4     2
 4.6668000000e-06     3     1     4     3
-4.7627000000e-06     3     1     4     4
-3.6000000000e-09     3     1     4     5
 2.1260000000e-07     3     1     5     2
-1.9896572000e-02     3     1     5     3
 4.2000000000e-09     3     1     5     4
-5.2609000000e-06     3     1     5     5
 2.3056000000e-06     3     2     1     1
-9.6291722000e-02     3     2     1     3
 9.9000000000e-09     3     2     1     4
 4.4080000000e-07     3     2     1     5
 5.2016000000e-06     3     2     2     1
-1.6691618470e-01     3     2     2     3
 1.4000000000e-09     3     2     2     4
 3.3111000000e-06     3     2     2     5
 1.8500000000e-08     3     2     4     1
-1.5712000000e-06     3     2     4     3
 1.5823000000e-06     3     2     4     4
 2.7000000000e-09     3     2     4     5
-2.1260000000e-07     3     2     5     1
 6.4615459000e-03     3     2     5     3
 1.4000000000e-09     3     2     5     4
 1.5449000000e-06     3     2     5     5
 1.5741885180e-01     3     3     1     1
 9.6291722000e-02     3     3     1     2
-4.6668000000e-06     3     3     1     4
 1.9896572000e-02     3     3     1     5
 9.6291722000e-02     3     3     2     1
 1.6691618470e-01     3     3     2     2
 1.5712000000e-06     3     3     2     4
-6.4615459000e-03     3     3     2     5
-4.6668000000e-06     3     3     4     1
 1.5712000000e-06     3     3     4     2
 1.8100172680e-01     3     3     4     4
-3.1068000000e-06     3     3     4     5
 1.9896572000e-02     3     3     5     1
-6.4615459000e-03     3     3     5     2
-3.1068000000e-06     3     3     5     4
 1.9853062920e-01     3     3     5     5
-9.0000000000e-10     3     4     1     1
-9.9000000000e-09     3     4     1     2
 4.6668000000e-06     3     4     1     3
-7.8000000000e-09     3     4     1     5
 8.6000000000e-09     3     4     2     1
-1.4000000000e-09     3     4     2     2
-1.5712000000e-06     3     4     2     3
 1.3000000000e-09     3     4     2     5
 4.7627000000e-06     3     4     4     1
-1.5823000000e-06     3     4     4     2
-1.8100172680e-01     3     4     4     3
 2.8790000000e-06     3     4     4     5
-4.2000000000e-09     3     4     5     1
-1.4000000000e-09     3     4     5     2
 3.1068000000e-06     3     4     5     3
-3.1000000000e-09     3     4     5     5
-3.7686000000e-06     3     5     1     1
-4.4080000000e-07     3     5     1     2
-1.9896572000e-02     3     5     1     3
 7.8000000000e-09     3     5     1     4
-6.5340000000e-07     3     5     2     1
-3.3111000000e-06     3     5     2     2
 6.4615459000e-03     3     5     2     3
-1.3000000000e-09     3     5     2     4
 3.6000000000e-09     3     5     4     1
-2.7000000000e-09     3     5     4     2
 3.1068000000e-06     3     5     4     3
-2.8790000000e-06     3     5     4     4
 5.2609000000e-06     3     5     5     1
-1.5449000000e-06     3     5     5     2
-1.9853062920e-01     3     5     5     3
 3.1000000000e-09     3     5     5     4
-2.2790000000e-06     4     1     1     2
 9.0000000000e-10     4     1     1     3
-1.5741846230e-01     4     1     1     4
 4.0102000000e-06     4     1     1     5
-5.1043000000e-06     4     1     2     2
 9.9000000000e-09     4     1     2     3
-9.6291608600e-02     4     1     2     4
 6.9600000000e-07     4     1     2     5
 1.8500000000e-08     4     1     3     2
-4.6668000000e-06     4     1     3     3
 4.7627000000e-06     4     1     3     4
 3.6000000000e-09     4     1     3     5
 1.0790000000e-07     4     1     5     2
 7.8000000000e-09     4     1     5     3
-1.9896590100e-02     4     1     5     4
-5.1277000000e-06     4     1     5     5
 2.2790000000e-06     4     2     1     1
-8.6000000000e-09     4     2     1     3
-9.6291608600e-02     4     2     1     4
 5.8810000000e-07     4     2     1     5
 5.1043000000e-06     4     2     2     1
 1.4000000000e-09     4     2     2     3
-1.6691574220e-01     4     2     2     4
 3.5919000000e-06     4     2     2     5
-1.8500000000e-08     4     2     3     1
 1.5712000000e-06     4     2     3     3
-1.5823000000e-06     4     2     3     4
-2.7000000000e-09     4     2     3     5
-1.0790000000e-07     4     2     5     1
-1.3000000000e-09     4     2     5     3
 6.4615287000e-03     4     2     5     4
 1.5429000000e-06     4     2     5     5
-9.0000000000e-10     4     3     1     1
 8.6000000000e-09     4     3     1     2
 4.7627000000e-06     4     3     1     4
-4.2000000000e-09     4     3     1     5
-9.9000000000e-09     4     3     2     1
-1.4000000000e-09     4     3     2     2
-1.5823000000e-06     4     3     2     4
-1.4000000000e-09     4     3     2     5
 4.6668000000e-06     4     3     3     1
-1.5712000000e-06     4     3     3     2
-1.8100172680e-01     4     3     3     4
 3.1068000000e-06     4     3     3     5
-7.8000000000e-09     4     3     5     1
 1.3000000000e-09     4     3     5     2
 2.8790000000e-06     4     3     5     4
-3.1000000000e-09     4     3     5     5
 1.5741846230e-01     4     4     1     1
 9.6291608600e-02     4     4     1     2
-4.7627000000e-06     4     4     1     3
 1.9896590100e-02     4     4     1     5
 9.6291608600e-02     4     4     2     1
 1.6691574220e-01     4     4     2     2
 1.5823000000e-06     4     4     2     3
-6.4615287000e-03     4     4     2     5
-4.7627000000e-06     4     4     3     1
 1.5823000000e-06     4     4     3     2
 1.8100172680e-01     4     4     3     3
-2.8790000000e-06     4     4     3     5
 1.9896590100e-02     4     4     5     1
-6.4615287000e-03     4     4     5     2
-2.8790000000e-06     4     4     5     3
 1.9853020810e-01     4     4     5     5
-4.0102000000e-06     4     5     1     1
-5.8810000000e-07     4     5     1     2
 4.2000000000e-09     4     5     1     3
-1.9896590100e-02     4     5     1     4
-6.9600000000e-07     4     5     2     1
-3.5919000000e-06     4     5     2     2
 1.4000000000e-09     4     5     2     3
 6.4615287000e-03     4     5     2     4