&FCI NORB=  5,NELEC=  2,MS2=0,
 ORBSYM=1,1,1,1,1
 ISYM=1,
&END
 1.0693991750e-01     1     1     2     2
-1.0772346600e-02     1     1     2     3
 1.7637630000e-04     1     1     2     4
 3.3622210000e-04     1     1     2     5
-1.0772346600e-02     1     1     3     2
 1.4066831870e-01     1     1     3     3
-7.5720200000e-05     1     1     3     4
-1.4451900000e-04     1     1     3     5
 1.7637630000e-04     1     1     4     2
-7.5720200000e-05     1     1     4     3
 1.3544847690e-01     1     1     4     4
 2.4449000000e-06     1     1     4     5
 3.3622210000e-04     1     1     5     2
-1.4451900000e-04     1     1     5     3
 2.4449000000e-06     1     1     5     4
 1.3545685550e-01     1     1     5     5
-1.0693991750e-01     1     2     2     1
-3.9543519400e-02     1     2     2     3
 6.5381870000e-04     1     2     2     4
 1.2481019000e-03     1     2     2     5
 1.0772346600e-02     1     2     3     1
 8.5410313600e-02     1     2     3     3
-4.4525500000e-05     1     2     3     4
-8.5060900000e-05     1     2     3     5
-1.7637630000e-04     1     2     4     1
-4.2324800000e-05     1     2     4     3
 8.2665548500e-02     1     2     4     4
 1.5186000000e-06     1     2     4     5
-3.3622210000e-04     1     2     5     1
-8.0815700000e-05     1     2     5     3
 1.4012000000e-06     1     2     5     4
 8.2669643500e-02     1     2     5     5
 1.0772346600e-02     1     3     2     1
 3.9543519400e-02     1     3     2     2
-2.2007000000e-06     1     3     2     4
-4.2452000000e-06     1     3     2     5
-1.4066831870e-01     1     3     3     1
-8.5410313600e-02     1     3     3     2
 6.6890460000e-04     1     3     3     4
 1.2773780000e-03     1     3     3     5
 7.5720200000e-05     1     3     4     1
 4.2324800000e-05     1     3     4     2
 4.0251538600e-02     1     3     4     4
-3.4600000000e-08     1     3     4     5
 1.4451900000e-04     1     3     5     1
 8.0815700000e-05     1     3     5     2
-8.8800000000e-08     1     3     5     4
 4.0251831600e-02     1     3     5     5
-1.7637630000e-04     1     4     2     1
-6.5381870000e-04     1     4     2     2
 2.2007000000e-06     1     4     2     3
 1.1740000000e-07     1     4     2     5
 7.5720200000e-05     1     4     3     1
 4.4525500000e-05     1     4     3     2
-6.6890460000e-04     1     4     3     3
 5.4200000000e-08     1     4     3     5
-1.3544847690e-01     1     4     4     1
-8.2665548500e-02     1     4     4     2
-4.0251538600e-02     1     4     4     3
 1.2655873000e-03     1     4     4     5
-2.4449000000e-06     1     4     5     1
-1.4012000000e-06     1     4     5     2
 8.8800000000e-08     1     4     5     3
-6.6278460000e-04     1     4     5     5
-3.3622210000e-04     1     5     2     1
-1.2481019000e-03     1     5     2     2
 4.2452000000e-06     1     5     2     3
-1.1740000000e-07     1     5     2     4
 1.4451900000e-04     1     5     3     1
 8.5060900000e-05     1     5     3     2
-1.2773780000e-03     1     5     3     3
-5.4200000000e-08     1     5     3     4
-2.4449000000e-06     1     5     4     1
-1.5186000000e-06     1     5     4     2
 3.4600000000e-08     1     5     4     3
-1.2655873000e-03     1     5     4     4
-1.3545685550e-01     1     5     5     1
-8.2669643500e-02     1     5     5     2
-4.0251831600e-02     1     5     5     3
 6.6278460000e-04     1     5     5     4
-1.0693991750e-01     2     1     1     2
 1.0772346600e-02     2     1     1     3
-1.7637630000e-04     2     1     1     4
-3.3622210000e-04     2     1     1     5
-3.9543519400e-02     2     1     3     2
 8.5410313600e-02     2     1     3     3
-4.2324800000e-05     2     1     3     4
-8.0815700000e-05     2     1     3     5
 6.5381870000e-04     2     1     4     2
-4.4525500000e-05     2     1     4     3
 8.2665548500e-02     2     1     4     4
 1.4012000000e-06     2     1     4     5
 1.2481019000e-03     2     1     5     2
-8.5060900000e-05     2     1     5     3
 1.5186000000e-06     2     1     5     4
 8.2669643500e-02     2     1     5     5
 1.0693991750e-01     2     2     1     1
 3.9543519400e-02     2     2     1     3
-6.5381870000e-04     2     2     1     4
-1.2481019000e-03     2     2     1     5
 3.9543519400e-02     2     2     3     1
 1.5692355900e-01     2     2     3     3
-1.1294890000e-04     2     2     3     4
-2.1558290000e-04     2     2     3     5
-6.5381870000e-04     2     2     4     1
-1.1294890000e-04     2     2     4     3
 1.4935780840e-01     2     2     4     4
 3.6457000000e-06     2     2     4     5
-1.2481019000e-03     2     2     5     1
-2.1558290000e-04     2     2     5     3
 3.6457000000e-06     2     2     5     4
 1.4936845170e-01     2     2     5     5
-1.0772346600e-02     2     3     1     1
-3.9543519400e-02     2     3     1     2
 2.2007000000e-06     2     3     1     4
 4.2452000000e-06     2     3     1     5
-8.5410313600e-02     2     3     3     1
-1.5692355900e-01     2     3     3     2
-1.2563160000e-04     2     3     3     4
-2.3927910000e-04     2     3     3     5
 4.4525500000e-05     2     3     4     1
 1.1294890000e-04     2     3     4     2
-7.7706944000e-03     2     3     4     4
-3.4600000000e-08     2     3     4     5
 8.5060900000e-05     2     3     5     1
 2.1558290000e-04     2     3     5     2
-1.9300000000e-08     2     3     5     4
-7.7706520000e-03     2     3     5     5
 1.7637630000e-04     2     4     1     1
 6.5381870000e-04     2     4     1     2
-2.2007000000e-06     2     4     1     3
-1.1740000000e-07     2     4     1     5
 4.2324800000e-05     2     4     3     1
 1.1294890000e-04     2     4     3     2
 1.2563160000e-04     2     4     3     3
-1.5300000000e-08     2     4     3     5
-8.2665548500e-02     2     4     4     1
-1.4935780840e-01     2     4     4     2
 7.7706944000e-03     2     4     4     3
-2.4138890000e-04     2     4     4     5
-1.5186000000e-06     2     4     5     1
-3.6457000000e-06     2     4     5     2
 1.9300000000e-08     2     4     5     3
 1.2670820000e-04     2     4     5     5
 3.3622210000e-04     2     5     1     1
 1.2481019000e-03     2     5     1     2
-4.2452000000e-06     2     5     1     3
 1.1740000000e-07     2     5     1     4
 8.0815700000e-05     2     5     3     1
 2.1558290000e-04     2     5     3     2
 2.3927910000e-04     2     5     3     3
 1.5300000000e-08     2     5     3     4
-1.4012000000e-06     2     5     4     1
-3.6457000000e-06     2     5     4     2
 3.4600000000e-08     2     5     4     3
 2.4138890000e-04     2     5     4     4
-8.2669643500e-02     2     5     5     1
-1.4936845170e-01     2     5     5     2
 7.7706520000e-03     2     5     5     3
-1.2670820000e-04     2     5     5     4
 1.0772346600e-02     3     1     1     2
-1.4066831870e-01     3     1     1     3
 7.5720200000e-05     3     1     1     4
 1.4451900000e-04     3     1     1     5
 3.9543519400e-02     3     1     2     2
-8.5410313600e-02     3     1     2     3
 4.2324800000e-05     3     1     2     4
 8.0815700000e-05     3     1     2     5
-2.2007000000e-06     3     1     4     2
 6.6890460000e-04     3     1     4     3
 4.0251538600e-02     3     1     4     4
-8.8800000000e-08     3     1     4     5
-4.2452000000e-06     3     1     5     2
 1.2773780000e-03     3     1     5     3
-3.4600000000e-08     3     1     5     4
 4.0251831600e-02     3     1     5     5
-1.0772346600e-02     3     2     1     1
-8.5410313600e-02     3     2     1     3
 4.4525500000e-05     3     2     1     4
 8.5060900000e-05     3     2     1     5
-3.9543519400e-02     3     2     2     1
-1.5692355900e-01     3     2     2     3
 1.1294890000e-04     3     2     2     4
 2.1558290000e-04     3     2     2     5
 2.2007000000e-06     3     2     4     1
-1.2563160000e-04     3     2     4     3
-7.7706944000e-03     3     2     4     4
-1.9300000000e-08     3     2     4     5
 4.2452000000e-06     3     2     5     1
-2.3927910000e-04     3     2     5     3
-3.4600000000e-08     3     2     5     4
-7.7706520000e-03     3     2     5     5
 1.4066831870e-01     3     3     1     1
 8.5410313600e-02     3     3     1     2
-6.6890460000e-04     3     3     1     4
-1.2773780000e-03     3     3     1     5
 8.5410313600e-02     3     3     2     1
 1.5692355900e-01     3     3     2     2
 1.2563160000e-04     3     3     2     4
 2.3927910000e-04     3     3     2     5
-6.6890460000e-04     3     3     4     1
 1.2563160000e-04     3     3     4     2
 1.6432686450e-01     3     3     4     4
 2.9084000000e-06     3     3     4     5
-1.2773780000e-03     3     3     5     1
 2.3927910000e-04     3     3     5     2
 2.9084000000e-06     3     3     5     4
 1.6433604360e-01     3     3     5     5
-7.5720200000e-05     3     4     1     1
-4.4525500000e-05     3     4     1     2
 6.6890460000e-04     3     4     1     3
-5.4200000000e-08     3     4     1     5
-4.2324800000e-05     3     4     2     1
-1.1294890000e-04     3     4     2     2
-1.2563160000e-04     3     4     2     3
 1.5300000000e-08     3     4     2     5
-4.0251538600e-02     3     4     4     1
 7.7706944000e-03     3     4     4     2
-1.6432686450e-01     3     4     4     3
 1.6910800000e-04     3     4     4     5
 3.4600000000e-08     3     4     5     1
 3.4600000000e-08     3     4     5     2
-2.9084000000e-06     3     4     5     3
-8.8509900000e-05     3     4     5     5
-1.4451900000e-04     3     5     1     1
-8.5060900000e-05     3     5     1     2
 1.2773780000e-03     3     5     1     3
 5.4200000000e-08     3     5     1     4
-8.0815700000e-05     3     5     2     1
-2.1558290000e-04     3     5     2     2
-2.3927910000e-04     3     5     2     3
-1.5300000000e-08     3     5     2     4
 8.8800000000e-08     3     5     4     1
 1.9300000000e-08     3     5     4     2
-2.9084000000e-06     3     5     4     3
-1.6910800000e-04     3     5     4     4
-4.0251831600e-02     3     5     5     1
 7.7706520000e-03     3     5     5     2
-1.6433604360e-01     3     5     5     3
 8.8509900000e-05     3     5     5     4
-1.7637630000e-04     4     1     1     2
 7.5720200000e-05     4     1     1     3
-1.3544847690e-01     4     1     1     4
-2.4449000000e-06     4     1     1     5
-6.5381870000e-04     4     1     2     2
 4.4525500000e-05     4     1     2     3
-8.2665548500e-02     4     1     2     4
-1.4012000000e-06     4     1     2     5
 2.2007000000e-06     4     1     3     2
-6.6890460000e-04     4     1     3     3
-4.0251538600e-02     4     1     3     4
 8.8800000000e-08     4     1     3     5
 1.1740000000e-07     4     1     5     2
 5.4200000000e-08     4     1     5     3
 1.2655873000e-03     4     1     5     4
-6.6278460000e-04     4     1     5     5
 1.7637630000e-04     4     2     1     1
 4.2324800000e-05     4     2     1     3
-8.2665548500e-02     4     2     1     4
-1.5186000000e-06     4     2     1     5
 6.5381870000e-04     4     2     2     1
 1.1294890000e-04     4     2     2     3
-1.4935780840e-01     4     2     2     4
-3.6457000000e-06     4     2     2     5
-2.2007000000e-06     4     2     3     1
 1.2563160000e-04     4     2     3     3
 7.7706944000e-03     4     2     3     4
 1.9300000000e-08     4     2     3     5
-1.1740000000e-07     4     2     5     1
-1.5300000000e-08     4     2     5     3
-2.4138890000e-04     4     2     5     4
 1.2670820000e-04     4     2     5     5
-7.5720200000e-05     4     3     1     1
-4.2324800000e-05     4     3     1     2
-4.0251538600e-02     4     3     1     4
 3.4600000000e-08     4     3     1     5
-4.4525500000e-05     4     3     2     1
-1.1294890000e-04     4     3     2     2
 7.7706944000e-03     4     3     2     4
 3.4600000000e-08     4     3     2     5
 6.6890460000e-04     4     3     3     1
-1.2563160000e-04     4     3     3     2
-1.6432686450e-01     4     3     3     4
-2.9084000000e-06     4     3     3     5
-5.4200000000e-08     4     3     5     1
 1.5300000000e-08     4     3     5     2
 1.6910800000e-04     4     3     5     4
-8.8509900000e-05     4     3     5     5
 1.3544847690e-01     4     4     1     1
 8.2665548500e-02     4     4     1     2
 4.0251538600e-02     4     4     1     3
-1.2655873000e-03     4     4     1     5
 8.2665548500e-02     4     4     2     1
 1.4935780840e-01     4     4     2     2
-7.7706944000e-03     4     4     2     3
 2.4138890000e-04     4     4     2     5
 4.0251538600e-02     4     4     3     1
-7.7706944000e-03     4     4     3     2
 1.6432686450e-01     4     4     3     3
-1.6910800000e-04     4     4     3     5
-1.2655873000e-03     4     4     5     1
 2.4138890000e-04     4     4     5     2
-1.6910800000e-04     4     4     5     3
 1.5832499040e-01     4     4     5     5
 2.4449000000e-06     4     5     1     1
 1.5186000000e-06     4     5     1     2
-3.4600000000e-08     4     5     1     3
 1.2655873000e-03     4     5     1     4
 1.4012000000e-06     4     5     2     1
 3.6457000000e-06     4     5     2     2
-3.4600000000e-08     4     5     2     3
-2.4138890000e-04     4     5     2     4
-8.8800000000e-08     4     5     3     1
-1.9300000000e-08     4     5     3     2
 2.9084000000e-06     4     5     3     3
 1.6910800000e-04     4     5     3     4
 6.6278460000e-04     4     5     5     1
-1.2670820000e-04     4     5     5     2
 8.8509900000e-05     4     5     5     3
-1.5832499040e-01     4     5     5     4
-3.3622210000e-04     5     1     1     2
 1.4451900000e-04     5     1     1     3
-2.4449000000e-06     5     1     1     4
-1.3545685550e-01     5     1     1     5
-1.2481019000e-03     5     1     2     2
 8.5060900000e-05     5     1     2     3
-1.5186000000e-06     5     1     2     4
-8.2669643500e-02     5     1     2     5
 4.2452000000e-06     5     1     3     2
-1.2773780000e-03     5     1     3     3
 3.4600000000e-08     5     1     3     4
-4.0251831600e-02     5     1     3     5
-1.1740000000e-07     5     1     4     2
-5.4200000000e-08     5     1     4     3
-1.2655873000e-03     5     1     4     4
 6.6278460000e-04     5     1     4     5
 3.3622210000e-04     5     2     1     1
 8.0815700000e-05     5     2     1     3
-1.4012000000e-06     5     2     1     4
-8.2669643500e-02     5     2     1     5
 1.2481019000e-03     5     2     2     1
 2.1558290000e-04     5     2     2     3
-3.6457000000e-06     5     2     2     4
-1.4936845170e-01     5     2     2     5
-4.2452000000e-06     5     2     3     1
 2.3927910000e-04     5     2     3     3
 3.4600000000e-08     5     2     3     4
 7.7706520000e-03     5     2     3     5
 1.1740000000e-07     5     2     4     1
 1.5300000000e-08     5     2     4     3
 2.4138890000e-04     5     2     4     4
-1.2670820000e-04     5     2     4     5
-1.4451900000e-04     5     3     1     1
-8.0815700000e-05     5     3     1     2
 8.8800000000e-08     5     3     1     4
-4.0251831600e-02     5     3     1     5
-8.5060900000e-05     5     3     2     1
-2.1558290000e-04     5     3     2     2
 1.9300000000e-08     5     3     2     4
 7.7706520000e-03     5     3     2     5
 1.2773780000e-03     5     3     3     1
-2.3927910000e-04     5     3     3     2
-2.9084000000e-06     5     3     3     4
-1.6433604360e-01     5     3     3     5
 5.4200000000e-08     5     3     4     1
-1.5300000000e-08     5     3     4     2
-1.6910800000e-04     5     3     4     4
 8.8509900000e-05     5     3     4     5
 2.4449000000e-06     5     4     1     1
 1.4012000000e-06     5     4     1     2
-8.8800000000e-08     5     4     1     3
 6.6278460000e-04     5     4     1     5
 1.5186000000e-06     5     4     2     1
 3.6457000000e-06     5     4     2     2
-1.9300000000e-08     5     4     2     3
-1.2670820000e-04     5     4     2     5
-3.4600000000e-08     5     4     3     1
-3.4600000000e-08     5     4     3     2
 2.9084000000e-06     5     4     3     3
 8.8509900000e-05     5     4     3     5
 1.2655873000e-03     5     4     4     1
-2.4138890000e-04     5     4     4     2
 1.6910800000e-04     5     4     4     3
-1.5832499040e-01     5     4     4     5
 1.3545685550e-01     5     5     1     1
 8.2669643500e-02     5     5     1     2
 4.0251831600e-02     5     5     1     3
-6.6278460000e-04     5     5     1     4
 8.2669643500e-02     5     5     2     1
 1.4936845170e-01     5     5     2     2
-7.7706520000e-03     5     5     2     3
 1.2670820000e-04     5     5     2     4
 4.0251831600e-02     5     5     3     1
-7.7706520000e-03     5     5     3     2
 1.6433604360e-01     5     5     3     3
-8.8509900000e-05     5     5     3     4
-6.6278460000e-04     5     5     4     1
 1.2670820000e-04     5     5     4     2
-8.8509900000e-05     5     5     4     3
 1.5832499040e-01     5     5     4     4
0.0 0 0 0 0
 1.0693991750e-01     1     1     2     2
-1.0772346600e-02     1     1     2     3
 1.7637630000e-04     1     1     2     4
 3.3622210000e-04     1     1     2     5
-1.0772346600e-02     1     1     3     2
 1.4066831870e-01     1     1     3     3
-7.5720200000e-05     1     1     3     4
-1.4451900000e-04     1     1     3     5
 1.7637630000e-04     1     1     4     2
-7.5720200000e-05     1     1     4     3
 1.3544847690e-01     1     1     4     4
 2.4449000000e-06     1     1     4     5
 3.3622210000e-04     1     1     5     2
-1.4451900000e-04     1     1     5     3
 2.4449000000e-06     1     1     5     4
 1.3545685550e-01     1     1     5     5
-1.0693991750e-01     1     2     2     1
-3.9543519400e-02     1     2     2     3
 6.5381870000e-04     1     2     2     4
 1.2481019000e-03     1     2     2     5
 1.0772346600e-02     1     2     3     1
 8.5410313600e-02     1     2     3     3
-4.4525500000e-05     1     2     3     4
-8.5060900000e-05     1     2     3     5
-1.7637630000e-04     1     2     4     1
-4.2324800000e-05     1     2     4     3
 8.2665548500e-02     1     2     4     4
 1.5186000000e-06     1     2     4     5
-3.3622210000e-04     1     2     5     1
-8.0815700000e-05     1     2     5     3
 1.4012000000e-06     1     2     5     4
 8.2669643500e-02     1     2     5     5
 1.0772346600e-02     1     3     2     1
 3.9543519400e-02     1     3     2     2
-2.2007000000e-06     1     3     2     4
-4.2452000000e-06     1     3     2     5
-1.4066831870e-01     1     3     3     1
-8.5410313600e-02     1     3     3     2
 6.6890460000e-04     1     3     3     4
 1.2773780000e-03     1     3     3     5
 7.5720200000e-05     1     3     4     1
 4.2324800000e-05     1     3     4     2
 4.0251538600e-02     1     3     4     4
-3.4600000000e-08     1     3     4     5
 1.4451900000e-04     1     3     5     1
 8.0815700000e-05     1     3     5     2
-8.8800000000e-08     1     3     5     4
 4.0251831600e-02     1     3     5     5
-1.7637630000e-04     1     4     2     1
-6.5381870000e-04     1     4     2     2
 2.2007000000e-06     1     4     2     3
 1.1740000000e-07     1     4     2     5
 7.5720200000e-05     1     4     3     1
 4.4525500000e-05     1     4     3     2
-6.6890460000e-04     1     4     3     3
 5.4200000000e-08     1     4     3     5
-1.3544847690e-01     1     4     4     1
-8.2665548500e-02     1     4     4     2
-4.0251538600e-02     1     4     4     3
 1.2655873000e-03     1     4     4     5
-2.4449000000e-06     1     4     5     1
-1.4012000000e-06     1     4     5     2
 8.8800000000e-08     1     4     5     3
-6.6278460000e-04     1     4     5     5
-3.3622210000e-04     1     5     2     1
-1.2481019000e-03     1     5     2     2
 4.2452000000e-06     1     5     2     3
-1.1740000000e-07     1     5     2     4
 1.4451900000e-04     1     5     3     1
 8.5060900000e-05     1     5     3     2
-1.2773780000e-03     1     5     3     3
-5.4200000000e-08     1     5     3     4
-2.4449000000e-06     1     5     4     1
-1.5186000000e-06     1     5     4     2
 3.4600000000e-08     1     5     4     3
-1.2655873000e-03     1     5     4     4
-1.3545685550e-01     1     5     5     1
-8.2669643500e-02     1     5     5     2
-4.0251831600e-02     1     5     5     3
 6.6278460000e-04     1     5     5     4
-1.0693991750e-01     2     1     1     2
 1.0772346600e-02     2     1     1     3
-1.7637630000e-04     2     1     1     4
-3.3622210000e-04     2     1     1     5
-3.9543519400e-02     2     1     3     2
 8.5410313600e-02     2     1     3     3
-4.2324800000e-05     2     1     3     4
-8.0815700000e-05     2     1     3     5
 6.5381870000e-04     2     1     4     2
-4.4525500000e-05     2     1     4     3
 8.2665548500e-02     2     1     4     4
 1.4012000000e-06     2     1     4     5
 1.2481019000e-03     2     1     5     2
-8.5060900000e-05     2     1     5     3
 1.5186000000e-06     2     1     5     4
 8.2669643500e-02     2     1     5     5
 1.0693991750e-01     2     2     1     1
 3.9543519400e-02     2     2     1     3
-6.5381870000e-04     2     2     1     4
-1.2481019000e-03     2     2     1     5
 3.9543519400e-02     2     2     3     1
 1.5692355900e-01     2     2     3     3
-1.1294890000e-04     2     2     3     4
-2.1558290000e-04     2     2     3     5
-6.5381870000e-04     2     2     4     1
-1.1294890000e-04     2     2     4     3
 1.4935780840e-01     2     2     4     4
 3.6457000000e-06     2     2     4     5
-1.2481019000e-03     2     2     5     1
-2.1558290000e-04     2     2     5     3
 3.6457000000e-06     2     2     5     4
 1.4936845170e-01     2     2     5     5
-1.0772346600e-02     2     3     1     1
-3.9543519400e-02     2     3     1     2
 2.2007000000e-06     2     3     1     4
 4.2452000000e-06     2     3     1     5
-8.5410313600e-02     2     3     3     1
-1.5692355900e-01     2     3     3     2
-1.2563160000e-04     2     3     3     4
-2.3927910000e-04     2     3     3     5
 4.4525500000e-05     2     3     4     1
 1.1294890000e-04     2     3     4     2
-7.7706944000e-03     2     3     4     4
-3.4600000000e-08     2     3     4     5
 8.5060900000e-05     2     3     5     1
 2.1558290000e-04     2     3     5     2
-1.9300000000e-08     2     3     5     4
-7.7706520000e-03     2     3     5     5
 1.7637630000e-04     2     4     1     1
 6.5381870000e-04     2     4     1     2
-2.2007000000e-06     2     4     1     3
-1.1740000000e-07     2     4     1     5
 4.2324800000e-05     2     4     3     1
 1.1294890000e-04     2     4     3     2
 1.2563160000e-04     2     4     3     3
-1.5300000000e-08     2     4     3     5
-8.2665548500e-02     2     4     4     1
-1.4935780840e-01     2     4     4     2
 7.7706944000e-03     2     4     4     3
-2.4138890000e-04     2     4     4     5
-1.5186000000e-06     2     4     5     1
-3.6457000000e-06     2     4     5     2
 1.9300000000e-08     2     4     5     3
 1.2670820000e-04     2     4     5     5
 3.3622210000e-04     2     5     1     1
 1.2481019000e-03     2     5     1     2
-4.2452000000e-06     2     5     1     3
 1.1740000000e-07     2     5     1     4
 8.0815700000e-05     2     5     3     1
 2.1558290000e-04     2     5     3     2
 2.3927910000e-04     2     5     3     3
 1.5300000000e-08     2     5     3     4
-1.4012000000e-06     2     5     4     1
-3.6457000000e-06     2     5     4     2
 3.4600000000e-08     2     5     4     3
 2.4138890000e-04     2     5     4     4
-8.2669643500e-02     2     5     5     1
-1.4936845170e-01     2     5     5     2
 7.7706520000e-03     2     5     5     3
-1.2670820000e-04     2     5     5     4
 1.0772346600e-02     3     1     1     2
-1.4066831870e-01     3     1     1     3
 7.5720200000e-05     3     1     1     4
 1.4451900000e-04     3     1     1     5
 3.9543519400e-02     3     1     2     2
-8.5410313600e-02     3     1     2     3
 4.2324800000e-05     3     1     2     4
 8.0815700000e-05     3     1     2     5
-2.2007000000e-06     3     1     4     2
 6.6890460000e-04     3     1     4     3
 4.0251538600e-02     3     1     4     4
-8.8800000000e-08     3     1     4     5
-4.2452000000e-06     3     1     5     2
 1.2773780000e-03     3     1     5     3
-3.4600000000e-08     3     1     5     4
 4.0251831600e-02     3     1     5     5
-1.0772346600e-02     3     2     1     1
-8.5410313600e-02     3     2     1     3
 4.4525500000e-05     3     2     1     4
 8.5060900000e-05     3     2     1     5
-3.9543519400e-02     3     2     2     1
-1.5692355900e-01     3     2     2     3
 1.1294890000e-04     3     2     2     4
 2.1558290000e-04     3     2     2     5
 2.2007000000e-06     3     2     4     1
-1.2563160000e-04     3     2     4     3
-7.7706944000e-03     3     2     4     4
-1.9300000000e-08     3     2     4     5
 4.2452000000e-06     3     2     5     1
-2.3927910000e-04     3     2     5     3
-3.4600000000e-08     3     2     5     4
-7.7706520000e-03     3     2     5     5
 1.4066831870e-01     3     3     1     1
 8.5410313600e-02     3     3     1     2
-6.6890460000e-04     3     3     1     4
-1.2773780000e-03     3     3     1     5
 8.5410313600e-02     3     3     2     1
 1.5692355900e-01     3     3     2     2
 1.2563160000e-04     3     3     2     4
 2.3927910000e-04     3     3     2     5
-6.6890460000e-04     3     3     4     1
 1.2563160000e-04     3     3     4     2
 1.6432686450e-01     3     3     4     4
 2.9084000000e-06     3     3     4     5
-1.2773780000e-03     3     3     5     1
 2.3927910000e-04     3     3     5     2
 2.9084000000e-06     3     3     5     4
 1.6433604360e-01     3     3     5     5
-7.5720200000e-05     3     4     1     1
-4.4525500000e-05     3     4     1     2
 6.6890460000e-04     3     4     1     3
-5.4200000000e-08     3     4     1     5
-4.2324800000e-05     3     4     2     1
-1.1294890000e-04     3     4     2     2
-1.2563160000e-04     3     4     2     3
 1.5300000000e-08     3     4     2     5
-4.0251538600e-02     3     4     4     1
 7.7706944000e-03     3     4     4     2
-1.6432686450e-01     3     4     4     3
 1.6910800000e-04     3     4     4     5
 3.4600000000e-08     3     4     5     1
 3.4600000000e-08     3     4     5     2
-2.9084000000e-06     3     4     5     3
-8.8509900000e-05     3     4     5     5
-1.4451900000e-04     3     5     1     1
-8.5060900000e-05     3     5     1     2
 1.2773780000e-03     3     5     1     3
 5.4200000000e-08     3     5     1     4
-8.0815700000e-05     3     5     2     1
-2.1558290000e-04     3     5     2     2
-2.3927910000e-04     3     5     2     3
-1.5300000000e-08     3     5     2     4
 8.8800000000e-08     3     5     4     1
 1.9300000000e-08     3     5     4     2
-2.9084000000e-06     3     5     4     3
-1.6910800000e-04     3     5     4     4
-4.0251831600e-02     3     5     5     1
 7.7706520000e-03     3     5     5     2
-1.6433604360e-01     3     5     5     3
 8.8509900000e-05     3     5     5     4
-1.7637630000e-04     4     1     1     2
 7.5720200000e-05     4     1     1     3
-1.3544847690e-01     4     1     1     4
-2.4449000000e-06     4     1     1     5
-6.5381870000e-04     4     1     2     2
 4.4525500000e-05     4     1     2     3
-8.2665548500e-02     4     1     2     4
-1.4012000000e-06     4     1     2     5
 2.2007000000e-06     4     1     3     2
-6.6890460000e-04     4     1     3     3
-4.0251538600e-02     4     1     3     4
 8.8800000000e-08     4     1     3     5
 1.1740000000e-07     4     1     5     2
 5.4200000000e-08     4     1     5     3
 1.2655873000e-03     4     1     5     4
-6.6278460000e-04     4     1     5     5
 1.7637630000e-04     4     2     1     1
 4.2324800000e-05     4     2     1     3
-8.2665548500e-02     4     2     1     4
-1.5186000000e-06     4     2     1     5
 6.5381870000e-04     4     2     2     1
 1.1294890000e-04     4     2     2     3
-1.4935780840e-01     4     2     2     4
-3.6457000000e-06     4     2     2     5
-2.2007000000e-06     4     2     3     1
 1.2563160000e-04     4     2     3     3
 7.7706944000e-03     4     2     3     4
 1.9300000000e-08     4     2     3     5
-1.1740000000e-07     4     2     5     1
-1.5300000000e-08     4     2     5     3
-2.4138890000e-04     4     2     5     4
 1.2670820000e-04     4     2     5     5
-7.5720200000e-05     4     3     1     1
-4.2324800000e-05     4     3     1     2
-4.0251538600e-02     4     3     1     4
 3.4600000000e-08     4     3     1     5
-4.4525500000e-05     4     3     2     1
-1.1294890000e-04     4     3     2     2
 7.7706944000e-03     4     3     2     4
 3.4600000000e-08     4     3     2     5
 6.6890460000e-04     4     3     3     1
-1.2563160000e-04     4     3     3     2
-1.6432686450e-01     4     3     3     4
-2.9084000000e-06     4     3     3     5
-5.4200000000e-08     4     3     5     1
 1.5300000000e-08     4     3     5     2
 1.6910800000e-04     4     3     5     4
-8.8509900000e-05     4     3     5     5
 1.3544847690e-01     4     4     1     1
 8.2665548500e-02     4     4     1     2
 4.0251538600e-02     4     4     1     3
-1.2655873000e-03     4     4     1     5
 8.2665548500e-02     4     4     2     1
 1.4935780840e-01     4     4     2     2
-7.7706944000e-03     4     4     2     3
 2.4138890000e-04     4     4     2     5
 4.0251538600e-02     4     4     3     1
-7.7706944000e-03     4     4     3     2
 1.6432686450e-01     4     4     3     3
-1.6910800000e-04     4     4     3     5
-1.2655873000e-03     4     4     5     1
 2.4138890000e-04     4     4     5     2
-1.6910800000e-04     4     4     5     3
 1.5832499040e-01     4     4     5     5
 2.4449000000e-06     4     5     1     1
 1.5186000000e-06     4     5     1     2
-3.4600000000e-08     4     5     1     3
 1.2655873000e-03     4     5     1     4
 1.4012000000e-06     4     5     2     1
 3.6457000000e-06     4     5     2     2
-3.4600000000e-08     4     5     2     3
-2.4138890000e-04     4     5     2     4