&FCI NORB=  5,NELEC=  2,MS2=0,
 ORBSYM=1,1,1,1,1
 ISYM=1,
&END
 1.1291722580e-01     1     1     2     2
 1.0606920000e-04     1     1     2     3
-3.7357330000e-04     1     1     2     4
-1.1527231600e-02     1     1     2     5
 1.0606920000e-04     1     1     3     2
 1.4040767240e-01     1     1     3     3
-1.9277000000e-06     1     1     3     4
-6.2076500000e-05     1     1     3     5
-3.7357330000e-04     1     1     4     2
-1.9277000000e-06     1     1     4     3
 1.4044036970e-01     1     1     4     4
 2.1880990000e-04     1     1     4     5
-1.1527231600e-02     1     1     5     2
-6.2076500000e-05     1     1     5     3
 2.1880990000e-04     1     1     5     4
 1.4835392320e-01     1     1     5     5
-1.1291722580e-01     1     2     2     1
-3.4655890000e-04     1     2     2     3
 1.2211722000e-03     1     2     2     4
 3.7290718500e-02     1     2     2     5
-1.0606920000e-04     1     2     3     1
-8.5484531000e-02     1     2     3     3
 7.5650000000e-07     1     2     3     4
 2.3240800000e-05     1     2     3     5
 3.7357330000e-04     1     2     4     1
 8.7470000000e-07     1     2     4     3
-8.5498546500e-02     1     2     4     4
-8.1821400000e-05     1     2     4     5
 1.1527231600e-02     1     2     5     1
 2.5196800000e-05     1     2     5     3
-8.8784800000e-05     1     2     5     4
-8.8503650500e-02     1     2     5     5
-1.0606920000e-04     1     3     2     1
 3.4655890000e-04     1     3     2     2
-1.1820000000e-07     1     3     2     4
-1.9560000000e-06     1     3     2     5
-1.4040767240e-01     1     3     3     1
 8.5484531000e-02     1     3     3     2
 1.2164424000e-03     1     3     3     4
 3.7321001900e-02     1     3     3     5
 1.9277000000e-06     1     3     4     1
-8.7470000000e-07     1     3     4     2
 3.4522190000e-04     1     3     4     4
 4.9800000000e-08     1     3     4     5
 6.2076500000e-05     1     3     5     1
-2.5196800000e-05     1     3     5     2
-6.4100000000e-08     1     3     5     4
 3.5074610000e-04     1     3     5     5
 3.7357330000e-04     1     4     2     1
-1.2211722000e-03     1     4     2     2
 1.1820000000e-07     1     4     2     3
 6.9634000000e-06     1     4     2     5
 1.9277000000e-06     1     4     3     1
-7.5650000000e-07     1     4     3     2
-1.2164424000e-03     1     4     3     3
 1.1390000000e-07     1     4     3     5
-1.4044036970e-01     1     4     4     1
 8.5498546500e-02     1     4     4     2
-3.4522190000e-04     1     4     4     3
 3.7321991100e-02     1     4     4     5
-2.1880990000e-04     1     4     5     1
 8.8784800000e-05     1     4     5     2
 6.4100000000e-08     1     4     5     3
-1.2357468000e-03     1     4     5     5
 1.1527231600e-02     1     5     2     1
-3.7290718500e-02     1     5     2     2
 1.9560000000e-06     1     5     2     3
-6.9634000000e-06     1     5     2     4
 6.2076500000e-05     1     5     3     1
-2.3240800000e-05     1     5     3     2
-3.7321001900e-02     1     5     3     3
-1.1390000000e-07     1     5     3     4
-2.1880990000e-04     1     5     4     1
 8.1821400000e-05     1     5     4     2
-4.9800000000e-08     1     5     4     3
-3.7321991100e-02     1     5     4     4
-1.4835392320e-01     1     5     5     1
 8.8503650500e-02     1     5     5     2
-3.5074610000e-04     1     5     5     3
 1.2357468000e-03     1     5     5     4
-1.1291722580e-01     2     1     1     2
-1.0606920000e-04     2     1     1     3
 3.7357330000e-04     2     1     1     4
 1.1527231600e-02     2     1     1     5
-3.4655890000e-04     2     1     3     2
-8.5484531000e-02     2     1     3     3
 8.7470000000e-07     2     1     3     4
 2.5196800000e-05     2     1     3     5
 1.2211722000e-03     2     1     4     2
 7.5650000000e-07     2     1     4     3
-8.5498546500e-02     2     1     4     4
-8.8784800000e-05     2     1     4     5
 3.7290718500e-02     2     1     5     2
 2.3240800000e-05     2     1     5     3
-8.1821400000e-05     2     1     5     4
-8.8503650500e-02     2     1     5     5
 1.1291722580e-01     2     2     1     1
 3.4655890000e-04     2     2     1     3
-1.2211722000e-03     2     2     1     4
-3.7290718500e-02     2     2     1     5
 3.4655890000e-04     2     2     3     1
 1.5419207090e-01     2     2     3     3
-2.5011000000e-06     2     2     3     4
-7.9151800000e-05     2     2     3     5
-1.2211722000e-03     2     2     4     1
-2.5011000000e-06     2     2     4     3
 1.5423009650e-01     2     2     4     4
 2.7894110000e-04     2     2     4     5
-3.7290718500e-02     2     2     5     1
-7.9151800000e-05     2     2     5     3
 2.7894110000e-04     2     2     5     4
 1.6415725690e-01     2     2     5     5
 1.0606920000e-04     2     3     1     1
-3.4655890000e-04     2     3     1     2
 1.1820000000e-07     2     3     1     4
 1.9560000000e-06     2     3     1     5
 8.5484531000e-02     2     3     3     1
-1.5419207090e-01     2     3     3     2
 2.7367020000e-04     2     3     3     4
 8.4746679000e-03     2     3     3     5
-7.5650000000e-07     2     3     4     1
 2.5011000000e-06     2     3     4     2
 7.7737500000e-05     2     3     4     4
-4.3800000000e-08     2     3     4     5
-2.3240800000e-05     2     3     5     1
 7.9151800000e-05     2     3     5     2
-1.4200000000e-08     2     3     5     4
 7.7165200000e-05     2     3     5     5
-3.7357330000e-04     2     4     1     1
 1.2211722000e-03     2     4     1     2
-1.1820000000e-07     2     4     1     3
-6.9634000000e-06     2     4     1     5
-8.7470000000e-07     2     4     3     1
 2.5011000000e-06     2     4     3     2
-2.7367020000e-04     2     4     3     3
-2.9600000000e-08     2     4     3     5
 8.5498546500e-02     2     4     4     1
-1.5423009650e-01     2     4     4     2
-7.7737500000e-05     2     4     4     3
 8.4749168000e-03     2     4     4     5
 8.1821400000e-05     2     4     5     1
-2.7894110000e-04     2     4     5     2
 1.4200000000e-08     2     4     5     3
-2.7167900000e-04     2     4     5     5
-1.1527231600e-02     2     5     1     1
 3.7290718500e-02     2     5     1     2
-1.9560000000e-06     2     5     1     3
 6.9634000000e-06     2     5     1     4
-2.5196800000e-05     2     5     3     1
 7.9151800000e-05     2     5     3     2
-8.4746679000e-03     2     5     3     3
 2.9600000000e-08     2     5     3     4
 8.8784800000e-05     2     5     4     1
-2.7894110000e-04     2     5     4     2
 4.3800000000e-08     2     5     4     3
-8.4749168000e-03     2     5     4     4
 8.8503650500e-02     2     5     5     1
-1.6415725690e-01     2     5     5     2
-7.7165200000e-05     2     5     5     3
 2.7167900000e-04     2     5     5     4
-1.0606920000e-04     3     1     1     2
-1.4040767240e-01     3     1     1     3
 1.9277000000e-06     3     1     1     4
 6.2076500000e-05     3     1     1     5
 3.4655890000e-04     3     1     2     2
 8.5484531000e-02     3     1     2     3
-8.7470000000e-07     3     1     2     4
-2.5196800000e-05     3     1     2     5
-1.1820000000e-07     3     1     4     2
 1.2164424000e-03     3     1     4     3
 3.4522190000e-04     3     1     4     4
-6.4100000000e-08     3     1     4     5
-1.9560000000e-06     3     1     5     2
 3.7321001900e-02     3     1     5     3
 4.9800000000e-08     3     1     5     4
 3.5074610000e-04     3     1     5     5
 1.0606920000e-04     3     2     1     1
 8.5484531000e-02     3     2     1     3
-7.5650000000e-07     3     2     1     4
-2.3240800000e-05     3     2     1     5
-3.4655890000e-04     3     2     2     1
-1.5419207090e-01     3     2     2     3
 2.5011000000e-06     3     2     2     4
 7.9151800000e-05     3     2     2     5
 1.1820000000e-07     3     2     4     1
 2.7367020000e-04     3     2     4     3
 7.7737500000e-05     3     2     4     4
-1.4200000000e-08     3     2     4     5
 1.9560000000e-06     3     2     5     1
 8.4746679000e-03     3     2     5     3
-4.3800000000e-08     3     2     5     4
 7.7165200000e-05     3     2     5     5
 1.4040767240e-01     3     3     1     1
-8.5484531000e-02     3     3     1     2
-1.2164424000e-03     3     3     1     4
-3.7321001900e-02     3     3     1     5
-8.5484531000e-02     3     3     2     1
 1.5419207090e-01     3     3     2     2
-2.7367020000e-04     3     3     2     4
-8.4746679000e-03     3     3     2     5
-1.2164424000e-03     3     3     4     1
-2.7367020000e-04     3     3     4     2
 1.6340512030e-01     3     3     4     4
 2.2448690000e-04     3     3     4     5
-3.7321001900e-02     3     3     5     1
-8.4746679000e-03     3     3     5     2
 2.2448690000e-04     3     3     5     4
 1.7148298610e-01     3     3     5     5
-1.9277000000e-06     3     4     1     1
 7.5650000000e-07     3     4     1     2
 1.2164424000e-03     3     4     1     3
-1.1390000000e-07     3     4     1     5
 8.7470000000e-07     3     4     2     1
-2.5011000000e-06     3     4     2     2
 2.7367020000e-04     3     4     2     3
 2.9600000000e-08     3     4     2     5
-3.4522190000e-04     3     4     4     1
-7.7737500000e-05     3     4     4     2
-1.6340512030e-01     3     4     4     3
 6.3818200000e-05     3     4     4     5
-4.9800000000e-08     3     4     5     1
 4.3800000000e-08     3     4     5     2
-2.2448690000e-04     3     4     5     3
-2.0232000000e-06     3     4     5     5
-6.2076500000e-05     3     5     1     1
 2.3240800000e-05     3     5     1     2
 3.7321001900e-02     3     5     1     3
 1.1390000000e-07     3     5     1     4
 2.5196800000e-05     3     5     2     1
-7.9151800000e-05     3     5     2     2
 8.4746679000e-03     3     5     2     3
-2.9600000000e-08     3     5     2     4
 6.4100000000e-08     3     5     4     1
 1.4200000000e-08     3     5     4     2
-2.2448690000e-04     3     5     4     3
-6.3818200000e-05     3     5     4     4
-3.5074610000e-04     3     5     5     1
-7.7165200000e-05     3     5     5     2
-1.7148298610e-01     3     5     5     3
 2.0232000000e-06     3     5     5     4
 3.7357330000e-04     4     1     1     2
 1.9277000000e-06     4     1     1     3
-1.4044036970e-01     4     1     1     4
-2.1880990000e-04     4     1     1     5
-1.2211722000e-03     4     1     2     2
-7.5650000000e-07     4     1     2     3
 8.5498546500e-02     4     1     2     4
 8.8784800000e-05     4     1     2     5
 1.1820000000e-07     4     1     3     2
-1.2164424000e-03     4     1     3     3
-3.4522190000e-04     4     1     3     4
 6.4100000000e-08     4     1     3     5
 6.9634000000e-06     4     1     5     2
 1.1390000000e-07     4     1     5     3
 3.7321991100e-02     4     1     5     4
-1.2357468000e-03     4     1     5     5
-3.7357330000e-04     4     2     1     1
-8.7470000000e-07     4     2     1     3
 8.5498546500e-02     4     2     1     4
 8.1821400000e-05     4     2     1     5
 1.2211722000e-03     4     2     2     1
 2.5011000000e-06     4     2     2     3
-1.5423009650e-01     4     2     2     4
-2.7894110000e-04     4     2     2     5
-1.1820000000e-07     4     2     3     1
-2.7367020000e-04     4     2     3     3
-7.7737500000e-05     4     2     3     4
 1.4200000000e-08     4     2     3     5
-6.9634000000e-06     4     2     5     1
-2.9600000000e-08     4     2     5     3
 8.4749168000e-03     4     2     5     4
-2.7167900000e-04     4     2     5     5
-1.9277000000e-06     4     3     1     1
 8.7470000000e-07     4     3     1     2
-3.4522190000e-04     4     3     1     4
-4.9800000000e-08     4     3     1     5
 7.5650000000e-07     4     3     2     1
-2.5011000000e-06     4     3     2     2
-7.7737500000e-05     4     3     2     4
 4.3800000000e-08     4     3     2     5
 1.2164424000e-03     4     3     3     1
 2.7367020000e-04     4     3     3     2
-1.6340512030e-01     4     3     3     4
-2.2448690000e-04     4     3     3     5
-1.1390000000e-07     4     3     5     1
 2.9600000000e-08     4     3     5     2
 6.3818200000e-05     4     3     5     4
-2.0232000000e-06     4     3     5     5
 1.4044036970e-01     4     4     1     1
-8.5498546500e-02     4     4     1     2
 3.4522190000e-04     4     4     1     3
-3.7321991100e-02     4     4     1     5
-8.5498546500e-02     4     4     2     1
 1.5423009650e-01     4     4     2     2
 7.7737500000e-05     4     4     2     3
-8.4749168000e-03     4     4     2     5
 3.4522190000e-04     4     4     3     1
 7.7737500000e-05     4     4     3     2
 1.6340512030e-01     4     4     3     3
-6.3818200000e-05     4     4     3     5
-3.7321991100e-02     4     4     5     1
-8.4749168000e-03     4     4     5     2
-6.3818200000e-05     4     4     5     3
 1.7151684390e-01     4     4     5     5
 2.1880990000e-04     4     5     1     1
-8.1821400000e-05     4     5     1     2
 4.9800000000e-08     4     5     1     3
 3.7321991100e-02     4     5     1     4
-8.8784800000e-05     4     5     2     1
 2.7894110000e-04     4     5     2     2
-4.3800000000e-08     4     5     2     3
 8.4749168000e-03     4     5     2     4
-6.4100000000e-08     4     5     3     1
-1.4200000000e-08     4     5     3     2
 2.2448690000e-04     4     5     3     3
 6.3818200000e-05     4     5     3     4
 1.2357468000e-03     4     5     5     1
 2.7167900000e-04     4     5     5     2
 2.0232000000e-06     4     5     5     3
-1.7151684390e-01     4     5     5     4
 1.1527231600e-02     5     1     1     2
 6.2076500000e-05     5     1     1     3
-2.1880990000e-04     5     1     1     4
-1.4835392320e-01     5     1     1     5
-3.7290718500e-02     5     1     2     2
-2.3240800000e-05     5     1     2     3
 8.1821400000e-05     5     1     2     4
 8.8503650500e-02     5     1     2     5
 1.9560000000e-06     5     1     3     2
-3.7321001900e-02     5     1     3     3
-4.9800000000e-08     5     1     3     4
-3.5074610000e-04     5     1     3     5
-6.9634000000e-06     5     1     4     2
-1.1390000000e-07     5     1     4     3
-3.7321991100e-02     5     1     4     4
 1.2357468000e-03     5     1     4     5
-1.1527231600e-02     5     2     1     1
-2.5196800000e-05     5     2     1     3
 8.8784800000e-05     5     2     1     4
 8.8503650500e-02     5     2     1     5
 3.7290718500e-02     5     2     2     1
 7.9151800000e-05     5     2     2     3
-2.7894110000e-04     5     2     2     4
-1.6415725690e-01     5     2     2     5
-1.9560000000e-06     5     2     3     1
-8.4746679000e-03     5     2     3     3
 4.3800000000e-08     5     2     3     4
-7.7165200000e-05     5     2     3     5
 6.9634000000e-06     5     2     4     1
 2.9600000000e-08     5     2     4     3
-8.4749168000e-03     5     2     4     4
 2.7167900000e-04     5     2     4     5
-6.2076500000e-05     5     3     1     1
 2.5196800000e-05     5     3     1     2
 6.4100000000e-08     5     3     1     4
-3.5074610000e-04     5     3     1     5
 2.3240800000e-05     5     3     2     1
-7.9151800000e-05     5     3     2     2
 1.4200000000e-08     5     3     2     4
-7.7165200000e-05     5     3     2     5
 3.7321001900e-02     5     3     3     1
 8.4746679000e-03     5     3     3     2
-2.2448690000e-04     5     3     3     4
-1.7148298610e-01     5     3     3     5
 1.1390000000e-07     5     3     4     1
-2.9600000000e-08     5     3     4     2
-6.3818200000e-05     5     3     4     4
 2.0232000000e-06     5     3     4     5
 2.1880990000e-04     5     4     1     1
-8.8784800000e-05     5     4     1     2
-6.4100000000e-08     5     4     1     3
 1.2357468000e-03     5     4     1     5
-8.1821400000e-05     5     4     2     1
 2.7894110000e-04     5     4     2     2
-1.4200000000e-08     5     4     2     3
 2.7167900000e-04     5     4     2     5
 4.9800000000e-08     5     4     3     1
-4.3800000000e-08     5     4     3     2
 2.2448690000e-04     5     4     3     3
 2.0232000000e-06     5     4     3     5
 3.7321991100e-02     5     4     4     1
 8.4749168000e-03     5     4     4     2
 6.3818200000e-05     5     4     4     3
-1.7151684390e-01     5     4     4     5
 1.4835392320e-01     5     5     1     1
-8.8503650500e-02     5     5     1     2
 3.5074610000e-04     5     5     1     3
-1.2357468000e-03     5     5     1     4
-8.8503650500e-02     5     5     2     1
 1.6415725690e-01     5     5     2     2
 7.7165200000e-05     5     5     2     3
-2.7167900000e-04     5     5     2     4
 3.5074610000e-04     5     5     3     1
 7.7165200000e-05     5     5     3     2
 1.7148298610e-01     5     5     3     3
-2.0232000000e-06     5     5     3     4
-1.2357468000e-03     5     5     4     1
-2.7167900000e-04     5     5     4     2
-2.0232000000e-06     5     5     4     3
 1.7151684390e-01     5     5     4     4
0.0 0 0 0 0
 1.1291722580e-01     1     1     2     2
 1.0606920000e-04     1     1     2     3
-3.7357330000e-04     1     1     2     4
-1.1527231600e-02     1     1     2     5
 1.0606920000e-04     1     1     3     2
 1.4040767240e-01     1     1     3     3
-1.9277000000e-06     1     1     3     4
-6.2076500000e-05     1     1     3     5
-3.7357330000e-04     1     1     4     2
-1.9277000000e-06     1     1     4     3
 1.4044036970e-01     1     1     4     4
 2.1880990000e-04     1     1     4     5
-1.1527231600e-02     1     1     5     2
-6.2076500000e-05     1     1     5     3
 2.1880990000e-04     1     1     5     4
 1.4835392320e-01     1     1     5     5
-1.1291722580e-01     1     2     2     1
-3.4655890000e-04     1     2     2     3
 1.2211722000e-03     1     2     2     4
 3.7290718500e-02     1     2     2     5
-1.0606920000e-04     1     2     3     1
-8.5484531000e-02     1     2     3     3
 7.5650000000e-07     1     2     3     4
 2.3240800000e-05     1     2     3     5
 3.7357330000e-04     1     2     4     1
 8.7470000000e-07     1     2     4     3
-8.5498546500e-02     1     2     4     4
-8.1821400000e-05     1     2     4     5
 1.1527231600e-02     1     2     5     1
 2.5196800000e-05     1     2     5     3
-8.8784800000e-05     1     2     5     4
-8.8503650500e-02     1     2     5     5
-1.0606920000e-04     1     3     2     1
 3.4655890000e-04     1     3     2     2
-1.1820000000e-07     1     3     2     4
-1.9560000000e-06     1     3     2     5
-1.4040767240e-01     1     3     3     1
 8.5484531000e-02     1     3     3     2
 1.2164424000e-03     1     3     3     4
 3.7321001900e-02     1     3     3     5
 1.9277000000e-06     1     3     4     1
-8.7470000000e-07     1     3     4     2
 3.4522190000e-04     1     3     4     4
 4.9800000000e-08     1     3     4     5
 6.2076500000e-05     1     3     5     1
-2.5196800000e-05     1     3     5     2
-6.4100000000e-08     1     3     5     4
 3.5074610000e-04     1     3     5     5
 3.7357330000e-04     1     4     2     1
-1.2211722000e-03     1     4     2     2
 1.1820000000e-07     1     4     2     3
 6.9634000000e-06     1     4     2     5
 1.9277000000e-06     1     4     3     1
-7.5650000000e-07     1     4     3     2
-1.2164424000e-03     1     4     3     3
 1.1390000000e-07     1     4     3     5
-1.4044036970e-01     1     4     4     1
 8.5498546500e-02     1     4     4     2
-3.4522190000e-04     1     4     4     3
 3.7321991100e-02     1     4     4     5
-2.1880990000e-04     1     4     5     1
 8.8784800000e-05     1     4     5     2
 6.4100000000e-08     1     4     5     3
-1.2357468000e-03     1     4     5     5
 1.1527231600e-02     1     5     2     1
-3.7290718500e-02     1     5     2     2
 1.9560000000e-06     1     5     2     3
-6.9634000000e-06     1     5     2     4
 6.2076500000e-05     1     5     3     1
-2.3240800000e-05     1     5     3     2
-3.7321001900e-02     1     5     3     3
-1.1390000000e-07     1     5     3     4
-2.1880990000e-04     1     5     4     1
 8.1821400000e-05     1     5     4     2
-4.9800000000e-08     1     5     4     3
-3.7321991100e-02     1     5     4     4
-1.4835392320e-01     1     5     5     1
 8.8503650500e-02     1     5     5     2
-3.5074610000e-04     1     5     5     3
 1.2357468000e-03     1     5     5     4
-1.1291722580e-01     2     1     1     2
-1.0606920000e-04     2     1     1     3
 3.7357330000e-04     2     1     1     4
 1.1527231600e-02     2     1     1     5
-3.4655890000e-04     2     1     3     2
-8.5484531000e-02     2     1     3     3
 8.7470000000e-07     2     1     3     4
 2.5196800000e-05     2     1     3     5
 1.2211722000e-03     2     1     4     2
 7.5650000000e-07     2     1     4     3
-8.5498546500e-02     2     1     4     4
-8.8784800000e-05     2     1     4     5
 3.7290718500e-02     2     1     5     2
 2.3240800000e-05     2     1     5     3
-8.1821400000e-05     2     1     5     4
-8.8503650500e-02     2     1     5     5
 1.1291722580e-01     2     2     1     1
 3.4655890000e-04     2     2     1     3
-1.2211722000e-03     2     2     1     4
-3.7290718500e-02     2     2     1     5
 3.4655890000e-04     2     2     3     1
 1.5419207090e-01     2     2     3     3
-2.5011000000e-06     2     2     3     4
-7.9151800000e-05     2     2     3     5
-1.2211722000e-03     2     2     4     1
-2.5011000000e-06     2     2     4     3
 1.5423009650e-01     2     2     4     4
 2.7894110000e-04     2     2     4     5
-3.7290718500e-02     2     2     5     1
-7.9151800000e-05     2     2     5     3
 2.7894110000e-04     2     2     5     4
 1.6415725690e-01     2     2     5     5
 1.0606920000e-04     2     3     1     1
-3.4655890000e-04     2     3     1     2
 1.1820000000e-07     2     3     1     4
 1.9560000000e-06     2     3     1     5
 8.5484531000e-02     2     3     3     1
-1.5419207090e-01     2     3     3     2
 2.7367020000e-04     2     3     3     4
 8.4746679000e-03     2     3     3     5
-7.5650000000e-07     2     3     4     1
 2.5011000000e-06     2     3     4     2
 7.7737500000e-05     2     3     4     4
-4.3800000000e-08     2     3     4     5
-2.3240800000e-05     2     3     5     1
 7.9151800000e-05     2     3     5     2
-1.4200000000e-08     2     3     5     4
 7.7165200000e-05     2     3     5     5
-3.7357330000e-04     2     4     1     1
 1.2211722000e-03     2     4     1     2
-1.1820000000e-07     2     4     1     3
-6.9634000000e-06     2     4     1     5
-8.7470000000e-07     2     4     3     1
 2.5011000000e-06     2     4     3     2
-2.7367020000e-04     2     4     3     3
-2.9600000000e-08     2     4     3     5
 8.5498546500e-02     2     4     4     1
-1.5423009650e-01     2     4     4     2
-7.7737500000e-05     2     4     4     3
 8.4749168000e-03     2     4     4     5
 8.1821400000e-05     2     4     5     1
-2.7894110000e-04     2     4     5     2
 1.4200000000e-08     2     4     5     3
-2.7167900000e-04     2     4     5     5
-1.1527231600e-02     2     5     1     1
 3.7290718500e-02     2     5     1     2
-1.9560000000e-06     2     5     1     3
 6.9634000000e-06     2     5     1     4
-2.5196800000e-05     2     5     3     1
 7.9151800000e-05     2     5     3     2
-8.4746679000e-03     2     5     3     3
 2.9600000000e-08     2     5     3     4
 8.8784800000e-05     2     5     4     1
-2.7894110000e-04     2     5     4     2
 4.3800000000e-08     2     5     4     3
-8.4749168000e-03     2     5     4     4
 8.8503650500e-02     2     5     5     1
-1.6415725690e-01     2     5     5     2
-7.7165200000e-05     2     5     5     3
 2.7167900000e-04     2     5     5     4
-1.0606920000e-04     3     1     1     2
-1.4040767240e-01     3     1     1     3
 1.9277000000e-06     3     1     1     4
 6.2076500000e-05     3     1     1     5
 3.4655890000e-04     3     1     2     2
 8.5484531000e-02     3     1     2     3
-8.7470000000e-07     3     1     2     4
-2.5196800000e-05     3     1     2     5
-1.1820000000e-07     3     1     4     2
 1.2164424000e-03     3     1     4     3
 3.4522190000e-04     3     1     4     4
-6.4100000000e-08     3     1     4     5
-1.9560000000e-06     3     1     5     2
 3.7321001900e-02     3     1     5     3
 4.9800000000e-08     3     1     5     4
 3.5074610000e-04     3     1     5     5
 1.0606920000e-04     3     2     1     1
 8.5484531000e-02     3     2     1     3
-7.5650000000e-07     3     2     1     4
-2.3240800000e-05     3     2     1     5
-3.4655890000e-04     3     2     2     1
-1.5419207090e-01     3     2     2     3
 2.5011000000e-06     3     2     2     4
 7.9151800000e-05     3     2     2     5
 1.1820000000e-07     3     2     4     1
 2.7367020000e-04     3     2     4     3
 7.7737500000e-05     3     2     4     4
-1.4200000000e-08     3     2     4     5
 1.9560000000e-06     3     2     5     1
 8.4746679000e-03     3     2     5     3
-4.3800000000e-08     3     2     5     4
 7.7165200000e-05     3     2     5     5
 1.4040767240e-01     3     3     1     1
-8.5484531000e-02     3     3     1     2
-1.2164424000e-03     3     3     1     4
-3.7321001900e-02     3     3     1     5
-8.5484531000e-02     3     3     2     1
 1.5419207090e-01     3     3     2     2
-2.7367020000e-04     3     3     2     4
-8.4746679000e-03     3     3     2     5
-1.2164424000e-03     3     3     4     1
-2.7367020000e-04     3     3     4     2
 1.6340512030e-01     3     3     4     4
 2.2448690000e-04     3     3     4     5
-3.7321001900e-02     3     3     5     1
-8.4746679000e-03     3     3     5     2
 2.2448690000e-04     3     3     5     4
 1.7148298610e-01     3     3     5     5
-1.9277000000e-06     3     4     1     1
 7.5650000000e-07     3     4     1     2
 1.2164424000e-03     3     4     1     3
-1.1390000000e-07     3     4     1     5
 8.7470000000e-07     3     4     2     1
-2.5011000000e-06     3     4     2     2
 2.7367020000e-04     3     4     2     3
 2.9600000000e-08     3     4     2     5
-3.4522190000e-04     3     4     4     1
-7.7737500000e-05     3     4     4     2
-1.6340512030e-01     3     4     4     3
 6.3818200000e-05     3     4     4     5
-4.9800000000e-08     3     4     5     1
 4.3800000000e-08     3     4     5     2
-2.2448690000e-04     3     4     5     3
-2.0232000000e-06     3     4     5     5
-6.2076500000e-05     3     5     1     1
 2.3240800000e-05     3     5     1     2
 3.7321001900e-02     3     5     1     3
 1.1390000000e-07     3     5     1     4
 2.5196800000e-05     3     5     2     1
-7.9151800000e-05     3     5     2     2
 8.4746679000e-03     3     5     2     3
-2.9600000000e-08     3     5     2     4
 6.4100000000e-08     3     5     4     1
 1.4200000000e-08     3     5     4     2
-2.2448690000e-04     3     5     4     3
-6.3818200000e-05     3     5     4     4
-3.5074610000e-04     3     5     5     1
-7.7165200000e-05     3     5     5     2
-1.7148298610e-01     3     5     5     3
 2.0232000000e-06     3     5     5     4
 3.7357330000e-04     4     1     1     2
 1.9277000000e-06     4     1     1     3
-1.4044036970e-01     4     1     1     4
-2.1880990000e-04     4     1     1     5
-1.2211722000e-03     4     1     2     2
-7.5650000000e-07     4     1     2     3
 8.5498546500e-02     4     1     2     4
 8.8784800000e-05     4     1     2     5
 1.1820000000e-07     4     1     3     2
-1.2164424000e-03     4     1     3     3
-3.4522190000e-04     4     1     3     4
 6.4100000000e-08     4     1     3     5
 6.9634000000e-06     4     1     5     2
 1.1390000000e-07     4     1     5     3
 3.7321991100e-02     4     1     5     4
-1.2357468000e-03     4     1     5     5
-3.7357330000e-04     4     2     1     1
-8.7470000000e-07     4     2     1     3
 8.5498546500e-02     4     2     1     4
 8.1821400000e-05     4     2     1     5
 1.2211722000e-03     4     2     2     1
 2.5011000000e-06     4     2     2     3
-1.5423009650e-01     4     2     2     4
-2.7894110000e-04     4     2     2     5
-1.1820000000e-07     4     2     3     1
-2.7367020000e-04     4     2     3     3
-7.7737500000e-05     4     2     3     4
 1.4200000000e-08     4     2     3     5
-6.9634000000e-06     4     2     5     1
-2.9600000000e-08     4     2     5     3
 8.4749168000e-03     4     2     5     4
-2.7167900000e-04     4     2     5     5
-1.9277000000e-06     4     3     1     1
 8.7470000000e-07     4     3     1     2
-3.4522190000e-04     4     3     1     4
-4.9800000000e-08     4     3     1     5
 7.5650000000e-07     4     3     2     1
-2.5011000000e-06     4     3     2     2
-7.7737500000e-05     4     3     2     4
 4.3800000000e-08     4     3     2     5
 1.2164424000e-03     4     3     3     1
 2.7367020000e-04     4     3     3     2
-1.6340512030e-01     4     3     3     4
-2.2448690000e-04     4     3     3     5
-1.1390000000e-07     4     3     5     1
 2.9600000000e-08     4     3     5     2
 6.3818200000e-05     4     3     5     4
-2.0232000000e-06     4     3     5     5
 1.4044036970e-01     4     4     1     1
-8.5498546500e-02     4     4     1     2
 3.4522190000e-04     4     4     1     3
-3.7321991100e-02     4     4     1     5
-8.5498546500e-02     4     4     2     1
 1.5423009650e-01     4     4     2     2
 7.7737500000e-05     4     4     2     3
-8.4749168000e-03     4     4     2     5
 3.4522190000e-04     4     4     3     1
 7.7737500000e-05     4     4     3     2
 1.6340512030e-01     4     4     3     3
-6.3818200000e-05     4     4     3     5
-3.7321991100e-02     4     4     5     1
-8.4749168000e-03     4     4     5     2
-6.3818200000e-05     4     4     5     3
 1.7151684390e-01     4     4     5     5
 2.1880990000e-04     4     5     1     1
-8.1821400000e-05     4     5     1     2
 4.9800000000e-08     4     5     1     3
 3.7321991100e-02     4     5     1     4
-8.8784800000e-05     4     5     2     1
 2.7894110000e-04     4     5     2     2
-4.3800000000e-08     4     5     2     3
 8.4749168000e-03     4     5     2     4