&FCI NORB=  5,NELEC=  2,MS2=0,
 ORBSYM=1,1,1,1,1
 ISYM=1,
&END
 3.8385068300e-02     1     1     2     2
 1.1281750000e-04     1     1     2     3
-1.1340000000e-07     1     1     2     4
 4.5819000000e-06     1     1     2     5
 1.1281750000e-04     1     1     3     2
 1.0016794760e-01     1     1     3     3
-8.0937000000e-06     1     1     3     4
 5.3376000000e-06     1     1     3     5
-1.1340000000e-07     1     1     4     2
-8.0937000000e-06     1     1     4     3
 1.0299430160e-01     1     1     4     4
 7.0600000000e-08     1     1     4     5
 4.5819000000e-06     1     1     5     2
 5.3376000000e-06     1     1     5     3
 7.0600000000e-08     1     1     5     4
 1.0299782720e-01     1     1     5     5
-3.8385068300e-02     1     2     2     1
-3.2543131700e-02     1     2     2     3
-3.1602580000e-04     1     2     2     4
 2.0355470000e-04     1     2     2     5
-1.1281750000e-04     1     2     3     1
-7.9041523800e-02     1     2     3     3
-2.8097100000e-05     1     2     3     4
 1.9011100000e-05     1     2     3     5
 1.1340000000e-07     1     2     4     1
-2.8499100000e-05     1     2     4     3
-7.7669767400e-02     1     2     4     4
-3.6100000000e-08     1     2     4     5
-4.5819000000e-06     1     2     5     1
 1.8799800000e-05     1     2     5     3
 3.6820000000e-07     1     2     5     4
-7.7671460300e-02     1     2     5     5
-1.1281750000e-04     1     3     2     1
 3.2543131700e-02     1     3     2     2
 4.0200000000e-07     1     3     2     4
 2.1130000000e-07     1     3     2     5
-1.0016794760e-01     1     3     3     1
 7.9041523800e-02     1     3     3     2
-3.8887100000e-04     1     3     3     4
 2.5551330000e-04     1     3     3     5
 8.0937000000e-06     1     3     4     1
 2.8499100000e-05     1     3     4     2
 4.0614957000e-02     1     3     4     4
 1.1960000000e-07     1     3     4     5
-5.3376000000e-06     1     3     5     1
-1.8799800000e-05     1     3     5     2
-1.1810000000e-07     1     3     5     4
 4.0615279400e-02     1     3     5     5
 1.1340000000e-07     1     4     2     1
 3.1602580000e-04     1     4     2     2
-4.0200000000e-07     1     4     2     3
-4.0430000000e-07     1     4     2     5
 8.0937000000e-06     1     4     3     1
 2.8097100000e-05     1     4     3     2
 3.8887100000e-04     1     4     3     3
 2.3770000000e-07     1     4     3     5
-1.0299430160e-01     1     4     4     1
 7.7669767400e-02     1     4     4     2
-4.0614957000e-02     1     4     4     3
 2.5727420000e-04     1     4     4     5
-7.0600000000e-08     1     4     5     1
-3.6820000000e-07     1     4     5     2
 1.1810000000e-07     1     4     5     3
 3.9161230000e-04     1     4     5     5
-4.5819000000e-06     1     5     2     1
-2.0355470000e-04     1     5     2     2
-2.1130000000e-07     1     5     2     3
 4.0430000000e-07     1     5     2     4
-5.3376000000e-06     1     5     3     1
-1.9011100000e-05     1     5     3     2
-2.5551330000e-04     1     5     3     3
-2.3770000000e-07     1     5     3     4
-7.0600000000e-08     1     5     4     1
 3.6100000000e-08     1     5     4     2
-1.1960000000e-07     1     5     4     3
-2.5727420000e-04     1     5     4     4
-1.0299782720e-01     1     5     5     1
 7.7671460300e-02     1     5     5     2
-4.0615279400e-02     1     5     5     3
-3.9161230000e-04     1     5     5     4
-3.8385068300e-02     2     1     1     2
-1.1281750000e-04     2     1     1     3
 1.1340000000e-07     2     1     1     4
-4.5819000000e-06     2     1     1     5
-3.2543131700e-02     2     1     3     2
-7.9041523800e-02     2     1     3     3
-2.8499100000e-05     2     1     3     4
 1.8799800000e-05     2     1     3     5
-3.1602580000e-04     2     1     4     2
-2.8097100000e-05     2     1     4     3
-7.7669767400e-02     2     1     4     4
 3.6820000000e-07     2     1     4     5
 2.0355470000e-04     2     1     5     2
 1.9011100000e-05     2     1     5     3
-3.6100000000e-08     2     1     5     4
-7.7671460300e-02     2     1     5     5
 3.8385068300e-02     2     2     1     1
 3.2543131700e-02     2     2     1     3
 3.1602580000e-04     2     2     1     4
-2.0355470000e-04     2     2     1     5
 3.2543131700e-02     2     2     3     1
 9.2716032500e-02     2     2     3     3
-8.9710000000e-07     2     2     3     4
 1.4687000000e-06     2     2     3     5
 3.1602580000e-04     2     2     4     1
-8.9710000000e-07     2     2     4     3
 9.4463081700e-02     2     2     4     4
 2.5500000000e-08     2     2     4     5
-2.0355470000e-04     2     2     5     1
 1.4687000000e-06     2     2     5     3
 2.5500000000e-08     2     2     5     4
 9.4465900400e-02     2     2     5     5
 1.1281750000e-04     2     3     1     1
-3.2543131700e-02     2     3     1     2
-4.0200000000e-07     2     3     1     4
-2.1130000000e-07     2     3     1     5
 7.9041523800e-02     2     3     3     1
-9.2716032500e-02     2     3     3     2
 4.1207100000e-05     2     3     3     4
-3.2461700000e-05     2     3     3     5
 2.8097100000e-05     2     3     4     1
 8.9710000000e-07     2     3     4     2
-4.3243034000e-03     2     3     4     4
-7.2000000000e-09     2     3     4     5
-1.9011100000e-05     2     3     5     1
-1.4687000000e-06     2     3     5     2
 3.9000000000e-09     2     3     5     4
-4.3246618000e-03     2     3     5     5
-1.1340000000e-07     2     4     1     1
-3.1602580000e-04     2     4     1     2
 4.0200000000e-07     2     4     1     3
 4.0430000000e-07     2     4     1     5
 2.8499100000e-05     2     4     3     1
 8.9710000000e-07     2     4     3     2
-4.1207100000e-05     2     4     3     3
-1.1100000000e-08     2     4     3     5
 7.7669767400e-02     2     4     4     1
-9.4463081700e-02     2     4     4     2
 4.3243034000e-03     2     4     4     3
-3.3413100000e-05     2     4     4     5
 3.6100000000e-08     2     4     5     1
-2.5500000000e-08     2     4     5     2
-3.9000000000e-09     2     4     5     3
-4.2758600000e-05     2     4     5     5
 4.5819000000e-06     2     5     1     1
 2.0355470000e-04     2     5     1     2
 2.1130000000e-07     2     5     1     3
-4.0430000000e-07     2     5     1     4
-1.8799800000e-05     2     5     3     1
-1.4687000000e-06     2     5     3     2
 3.2461700000e-05     2     5     3     3
 1.1100000000e-08     2     5     3     4
-3.6820000000e-07     2     5     4     1
-2.5500000000e-08     2     5     4     2
 7.2000000000e-09     2     5     4     3
 3.3413100000e-05     2     5     4     4
 7.7671460300e-02     2     5     5     1
-9.4465900400e-02     2     5     5     2
 4.3246618000e-03     2     5     5     3
 4.2758600000e-05     2     5     5     4
-1.1281750000e-04     3     1     1     2
-1.0016794760e-01     3     1     1     3
 8.0937000000e-06     3     1     1     4
-5.3376000000e-06     3     1     1     5
 3.2543131700e-02     3     1     2     2
 7.9041523800e-02     3     1     2     3
 2.8499100000e-05     3     1     2     4
-1.8799800000e-05     3     1     2     5
 4.0200000000e-07     3     1     4     2
-3.8887100000e-04     3     1     4     3
 4.0614957000e-02     3     1     4     4
-1.1810000000e-07     3     1     4     5
 2.1130000000e-07     3     1     5     2
 2.5551330000e-04     3     1     5     3
 1.1960000000e-07     3     1     5     4
 4.0615279400e-02     3     1     5     5
 1.1281750000e-04     3     2     1     1
 7.9041523800e-02     3     2     1     3
 2.8097100000e-05     3     2     1     4
-1.9011100000e-05     3     2     1     5
-3.2543131700e-02     3     2     2     1
-9.2716032500e-02     3     2     2     3
 8.9710000000e-07     3     2     2     4
-1.4687000000e-06     3     2     2     5
-4.0200000000e-07     3     2     4     1
 4.1207100000e-05     3     2     4     3
-4.3243034000e-03     3     2     4     4
 3.9000000000e-09     3     2     4     5
-2.1130000000e-07     3     2     5     1
-3.2461700000e-05     3     2     5     3
-7.2000000000e-09     3     2     5     4
-4.3246618000e-03     3     2     5     5
 1.0016794760e-01     3     3     1     1
-7.9041523800e-02     3     3     1     2
 3.8887100000e-04     3     3     1     4
-2.5551330000e-04     3     3     1     5
-7.9041523800e-02     3     3     2     1
 9.2716032500e-02     3     3     2     2
-4.1207100000e-05     3     3     2     4
 3.2461700000e-05     3     3     2     5
 3.8887100000e-04     3     3     4     1
-4.1207100000e-05     3     3     4     2
 1.2926994620e-01     3     3     4     4
-4.4700000000e-08     3     3     4     5
-2.5551330000e-04     3     3     5     1
 3.2461700000e-05     3     3     5     2
-4.4700000000e-08     3     3     5     4
 1.2927357390e-01     3     3     5     5
-8.0937000000e-06     3     4     1     1
-2.8097100000e-05     3     4     1     2
-3.8887100000e-04     3     4     1     3
-2.3770000000e-07     3     4     1     5
-2.8499100000e-05     3     4     2     1
-8.9710000000e-07     3     4     2     2
 4.1207100000e-05     3     4     2     3
 1.1100000000e-08     3     4     2     5
-4.0614957000e-02     3     4     4     1
 4.3243034000e-03     3     4     4     2
-1.2926994620e-01     3     4     4     3
 7.2493000000e-06     3     4     4     5
-1.1960000000e-07     3     4     5     1
 7.2000000000e-09     3     4     5     2
 4.4700000000e-08     3     4     5     3
 1.1357500000e-05     3     4     5     5
 5.3376000000e-06     3     5     1     1
 1.9011100000e-05     3     5     1     2
 2.5551330000e-04     3     5     1     3
 2.3770000000e-07     3     5     1     4
 1.8799800000e-05     3     5     2     1
 1.4687000000e-06     3     5     2     2
-3.2461700000e-05     3     5     2     3
-1.1100000000e-08     3     5     2     4
 1.1810000000e-07     3     5     4     1
-3.9000000000e-09     3     5     4     2
 4.4700000000e-08     3     5     4     3
-7.2493000000e-06     3     5     4     4
-4.0615279400e-02     3     5     5     1
 4.3246618000e-03     3     5     5     2
-1.2927357390e-01     3     5     5     3
-1.1357500000e-05     3     5     5     4
 1.1340000000e-07     4     1     1     2
 8.0937000000e-06     4     1     1     3
-1.0299430160e-01     4     1     1     4
-7.0600000000e-08     4     1     1     5
 3.1602580000e-04     4     1     2     2
 2.8097100000e-05     4     1     2     3
 7.7669767400e-02     4     1     2     4
-3.6820000000e-07     4     1     2     5
-4.0200000000e-07     4     1     3     2
 3.8887100000e-04     4     1     3     3
-4.0614957000e-02     4     1     3     4
 1.1810000000e-07     4     1     3     5
-4.0430000000e-07     4     1     5     2
 2.3770000000e-07     4     1     5     3
 2.5727420000e-04     4     1     5     4
 3.9161230000e-04     4     1     5     5
-1.1340000000e-07     4     2     1     1
 2.8499100000e-05     4     2     1     3
 7.7669767400e-02     4     2     1     4
 3.6100000000e-08     4     2     1     5
-3.1602580000e-04     4     2     2     1
 8.9710000000e-07     4     2     2     3
-9.4463081700e-02     4     2     2     4
-2.5500000000e-08     4     2     2     5
 4.0200000000e-07     4     2     3     1
-4.1207100000e-05     4     2     3     3
 4.3243034000e-03     4     2     3     4
-3.9000000000e-09     4     2     3     5
 4.0430000000e-07     4     2     5     1
-1.1100000000e-08     4     2     5     3
-3.3413100000e-05     4     2     5     4
-4.2758600000e-05     4     2     5     5
-8.0937000000e-06     4     3     1     1
-2.8499100000e-05     4     3     1     2
-4.0614957000e-02     4     3     1     4
-1.1960000000e-07     4     3     1     5
-2.8097100000e-05     4     3     2     1
-8.9710000000e-07     4     3     2     2
 4.3243034000e-03     4     3     2     4
 7.2000000000e-09     4     3     2     5
-3.8887100000e-04     4     3     3     1
 4.1207100000e-05     4     3     3     2
-1.2926994620e-01     4     3     3     4
 4.4700000000e-08     4     3     3     5
-2.3770000000e-07     4     3     5     1
 1.1100000000e-08     4     3     5     2
 7.2493000000e-06     4     3     5     4
 1.1357500000e-05     4     3     5     5
 1.0299430160e-01     4     4     1     1
-7.7669767400e-02     4     4     1     2
 4.0614957000e-02     4     4     1     3
-2.5727420000e-04     4     4     1     5
-7.7669767400e-02     4     4     2     1
 9.4463081700e-02     4     4     2     2
-4.3243034000e-03     4     4     2     3
 3.3413100000e-05     4     4     2     5
 4.0614957000e-02     4     4     3     1
-4.3243034000e-03     4     4     3     2
 1.2926994620e-01     4     4     3     3
-7.2493000000e-06     4     4     3     5
-2.5727420000e-04     4     4     5     1
 3.3413100000e-05     4     4     5     2
-7.2493000000e-06     4     4     5     3
 1.3006654310e-01     4     4     5     5
 7.0600000000e-08     4     5     1     1
-3.6100000000e-08     4     5     1     2
 1.1960000000e-07     4     5     1     3
 2.5727420000e-04     4     5     1     4
 3.6820000000e-07     4     5     2     1
 2.5500000000e-08     4     5     2     2
-7.2000000000e-09     4     5     2     3
-3.3413100000e-05     4     5     2     4
-1.1810000000e-07     4     5     3     1
 3.9000000000e-09     4     5     3     2
-4.4700000000e-08     4     5     3     3
 7.2493000000e-06     4     5     3     4
-3.9161230000e-04     4     5     5     1
 4.2758600000e-05     4     5     5     2
-1.1357500000e-05     4     5     5     3
-1.3006654310e-01     4     5     5     4
-4.5819000000e-06     5     1     1     2
-5.3376000000e-06     5     1     1     3
-7.0600000000e-08     5     1     1     4
-1.0299782720e-01     5     1     1     5
-2.0355470000e-04     5     1     2     2
-1.9011100000e-05     5     1     2     3
 3.6100000000e-08     5     1     2     4
 7.7671460300e-02     5     1     2     5
-2.1130000000e-07     5     1     3     2
-2.5551330000e-04     5     1     3     3
-1.1960000000e-07     5     1     3     4
-4.0615279400e-02     5     1     3     5
 4.0430000000e-07     5     1     4     2
-2.3770000000e-07     5     1     4     3
-2.5727420000e-04     5     1     4     4
-3.9161230000e-04     5     1     4     5
 4.5819000000e-06     5     2     1     1
-1.8799800000e-05     5     2     1     3
-3.6820000000e-07     5     2     1     4
 7.7671460300e-02     5     2     1     5
 2.0355470000e-04     5     2     2     1
-1.4687000000e-06     5     2     2     3
-2.5500000000e-08     5     2     2     4
-9.4465900400e-02     5     2     2     5
 2.1130000000e-07     5     2     3     1
 3.2461700000e-05     5     2     3     3
 7.2000000000e-09     5     2     3     4
 4.3246618000e-03     5     2     3     5
-4.0430000000e-07     5     2     4     1
 1.1100000000e-08     5     2     4     3
 3.3413100000e-05     5     2     4     4
 4.2758600000e-05     5     2     4     5
 5.3376000000e-06     5     3     1     1
 1.8799800000e-05     5     3     1     2
 1.1810000000e-07     5     3     1     4
-4.0615279400e-02     5     3     1     5
 1.9011100000e-05     5     3     2     1
 1.4687000000e-06     5     3     2     2
-3.9000000000e-09     5     3     2     4
 4.3246618000e-03     5     3     2     5
 2.5551330000e-04     5     3     3     1
-3.2461700000e-05     5     3     3     2
 4.4700000000e-08     5     3     3     4
-1.2927357390e-01     5     3     3     5
 2.3770000000e-07     5     3     4     1
-1.1100000000e-08     5     3     4     2
-7.2493000000e-06     5     3     4     4
-1.1357500000e-05     5     3     4     5
 7.0600000000e-08     5     4     1     1
 3.6820000000e-07     5     4     1     2
-1.1810000000e-07     5     4     1     3
-3.9161230000e-04     5     4     1     5
-3.6100000000e-08     5     4     2     1
 2.5500000000e-08     5     4     2     2
 3.9000000000e-09     5     4     2     3
 4.2758600000e-05     5     4     2     5
 1.1960000000e-07     5     4     3     1
-7.2000000000e-09     5     4     3     2
-4.4700000000e-08     5     4     3     3
-1.1357500000e-05     5     4     3     5
 2.5727420000e-04     5     4     4     1
-3.3413100000e-05     5     4     4     2
 7.2493000000e-06     5     4     4     3
-1.3006654310e-01     5     4     4     5
 1.0299782720e-01     5     5     1     1
-7.7671460300e-02     5     5     1     2
 4.0615279400e-02     5     5     1     3
 3.9161230000e-04     5     5     1     4
-7.7671460300e-02     5     5     2     1
 9.4465900400e-02     5     5     2     2
-4.3246618000e-03     5     5     2     3
-4.2758600000e-05     5     5     2     4
 4.0615279400e-02     5     5     3     1
-4.3246618000e-03     5     5     3     2
 1.2927357390e-01     5     5     3     3
 1.1357500000e-05     5     5     3     4
 3.9161230000e-04     5     5     4     1
-4.2758600000e-05     5     5     4     2
 1.1357500000e-05     5     5     4     3
 1.3006654310e-01     5     5     4     4
0.0 0 0 0 0
 3.8385068300e-02     1     1     2     2
 1.1281750000e-04     1     1     2     3
-1.1340000000e-07     1     1     2     4
 4.5819000000e-06     1     1     2     5
 1.1281750000e-04     1     1     3     2
 1.0016794760e-01     1     1     3     3
-8.0937000000e-06     1     1     3     4
 5.3376000000e-06     1     1     3     5
-1.1340000000e-07     1     1     4     2
-8.0937000000e-06     1     1     4     3
 1.0299430160e-01     1     1     4     4
 7.0600000000e-08     1     1     4     5
 4.5819000000e-06     1     1     5     2
 5.3376000000e-06     1     1     5     3
 7.0600000000e-08     1     1     5     4
 1.0299782720e-01     1     1     5     5
-3.8385068300e-02     1     2     2     1
-3.2543131700e-02     1     2     2     3
-3.1602580000e-04     1     2     2     4
 2.0355470000e-04     1     2     2     5
-1.1281750000e-04     1     2     3     1
-7.9041523800e-02     1     2     3     3
-2.8097100000e-05     1     2     3     4
 1.9011100000e-05     1     2     3     5
 1.1340000000e-07     1     2     4     1
-2.8499100000e-05     1     2     4     3
-7.7669767400e-02     1     2     4     4
-3.6100000000e-08     1     2     4     5
-4.5819000000e-06     1     2     5     1
 1.8799800000e-05     1     2     5     3
 3.6820000000e-07     1     2     5     4
-7.7671460300e-02     1     2     5     5
-1.1281750000e-04     1     3     2     1
 3.2543131700e-02     1     3     2     2
 4.0200000000e-07     1     3     2     4
 2.1130000000e-07     1     3     2     5
-1.0016794760e-01     1     3     3     1
 7.9041523800e-02     1     3     3     2
-3.8887100000e-04     1     3     3     4
 2.5551330000e-04     1     3     3     5
 8.0937000000e-06     1     3     4     1
 2.8499100000e-05     1     3     4     2
 4.0614957000e-02     1     3     4     4
 1.1960000000e-07     1     3     4     5
-5.3376000000e-06     1     3     5     1
-1.8799800000e-05     1     3     5     2
-1.1810000000e-07     1     3     5     4
 4.0615279400e-02     1     3     5     5
 1.1340000000e-07     1     4     2     1
 3.1602580000e-04     1     4     2     2
-4.0200000000e-07     1     4     2     3
-4.0430000000e-07     1     4     2     5
 8.0937000000e-06     1     4     3     1
 2.8097100000e-05     1     4     3     2
 3.8887100000e-04     1     4     3     3
 2.3770000000e-07     1     4     3     5
-1.0299430160e-01     1     4     4     1
 7.7669767400e-02     1     4     4     2
-4.0614957000e-02     1     4     4     3
 2.5727420000e-04     1     4     4     5
-7.0600000000e-08     1     4     5     1
-3.6820000000e-07     1     4     5     2
 1.1810000000e-07     1     4     5     3
 3.9161230000e-04     1     4     5     5
-4.5819000000e-06     1     5     2     1
-2.0355470000e-04     1     5     2     2
-2.1130000000e-07     1     5     2     3
 4.0430000000e-07     1     5     2     4
-5.3376000000e-06     1     5     3     1
-1.9011100000e-05     1     5     3     2
-2.5551330000e-04     1     5     3     3
-2.3770000000e-07     1     5     3     4
-7.0600000000e-08     1     5     4     1
 3.6100000000e-08     1     5     4     2
-1.1960000000e-07     1     5     4     3
-2.5727420000e-04     1     5     4     4
-1.0299782720e-01     1     5     5     1
 7.7671460300e-02     1     5     5     2
-4.0615279400e-02     1     5     5     3
-3.9161230000e-04     1     5     5     4
-3.8385068300e-02     2     1     1     2
-1.1281750000e-04     2     1     1     3
 1.1340000000e-07     2     1     1     4
-4.5819000000e-06     2     1     1     5
-3.2543131700e-02     2     1     3     2
-7.9041523800e-02     2     1     3     3
-2.8499100000e-05     2     1     3     4
 1.8799800000e-05     2     1     3     5
-3.1602580000e-04     2     1     4     2
-2.8097100000e-05     2     1     4     3
-7.7669767400e-02     2     1     4     4
 3.6820000000e-07     2     1     4     5
 2.0355470000e-04     2     1     5     2
 1.9011100000e-05     2     1     5     3
-3.6100000000e-08     2     1     5     4
-7.7671460300e-02     2     1     5     5
 3.8385068300e-02     2     2     1     1
 3.2543131700e-02     2     2     1     3
 3.1602580000e-04     2     2     1     4
-2.0355470000e-04     2     2     1     5
 3.2543131700e-02     2     2     3     1
 9.2716032500e-02     2     2     3     3
-8.9710000000e-07     2     2     3     4
 1.4687000000e-06     2     2     3     5
 3.1602580000e-04     2     2     4     1
-8.9710000000e-07     2     2     4     3
 9.4463081700e-02     2     2     4     4
 2.5500000000e-08     2     2     4     5
-2.0355470000e-04     2     2     5     1
 1.4687000000e-06     2     2     5     3
 2.5500000000e-08     2     2     5     4
 9.4465900400e-02     2     2     5     5
 1.1281750000e-04     2     3     1     1
-3.2543131700e-02     2     3     1     2
-4.0200000000e-07     2     3     1     4
-2.1130000000e-07     2     3     1     5
 7.9041523800e-02     2     3     3     1
-9.2716032500e-02     2     3     3     2
 4.1207100000e-05     2     3     3     4
-3.2461700000e-05     2     3     3     5
 2.8097100000e-05     2     3     4     1
 8.9710000000e-07     2     3     4     2
-4.3243034000e-03     2     3     4     4
-7.2000000000e-09     2     3     4     5
-1.9011100000e-05     2     3     5     1
-1.4687000000e-06     2     3     5     2
 3.9000000000e-09     2     3     5     4
-4.3246618000e-03     2     3     5     5
-1.1340000000e-07     2     4     1     1
-3.1602580000e-04     2     4     1     2
 4.0200000000e-07     2     4     1     3
 4.0430000000e-07     2     4     1     5
 2.8499100000e-05     2     4     3     1
 8.9710000000e-07     2     4     3     2
-4.1207100000e-05     2     4     3     3
-1.1100000000e-08     2     4     3     5
 7.7669767400e-02     2     4     4     1
-9.4463081700e-02     2     4     4     2
 4.3243034000e-03     2     4     4     3
-3.3413100000e-05     2     4     4     5
 3.6100000000e-08     2     4     5     1
-2.5500000000e-08     2     4     5     2
-3.9000000000e-09     2     4     5     3
-4.2758600000e-05     2     4     5     5
 4.5819000000e-06     2     5     1     1
 2.0355470000e-04     2     5     1     2
 2.1130000000e-07     2     5     1     3
-4.0430000000e-07     2     5     1     4
-1.8799800000e-05     2     5     3     1
-1.4687000000e-06     2     5     3     2
 3.2461700000e-05     2     5     3     3
 1.1100000000e-08     2     5     3     4
-3.6820000000e-07     2     5     4     1
-2.5500000000e-08     2     5     4     2
 7.2000000000e-09     2     5     4     3
 3.3413100000e-05     2     5     4     4
 7.7671460300e-02     2     5     5     1
-9.4465900400e-02     2     5     5     2
 4.3246618000e-03     2     5     5     3
 4.2758600000e-05     2     5     5     4
-1.1281750000e-04     3     1     1     2
-1.0016794760e-01     3     1     1     3
 8.0937000000e-06     3     1     1     4
-5.3376000000e-06     3     1     1     5
 3.2543131700e-02     3     1     2     2
 7.9041523800e-02     3     1     2     3
 2.8499100000e-05     3     1     2     4
-1.8799800000e-05     3     1     2     5
 4.0200000000e-07     3     1     4     2
-3.8887100000e-04     3     1     4     3
 4.0614957000e-02     3     1     4     4
-1.1810000000e-07     3     1     4     5
 2.1130000000e-07     3     1     5     2
 2.5551330000e-04     3     1     5     3
 1.1960000000e-07     3     1     5     4
 4.0615279400e-02     3     1     5     5
 1.1281750000e-04     3     2     1     1
 7.9041523800e-02     3     2     1     3
 2.8097100000e-05     3     2     1     4
-1.9011100000e-05     3     2     1     5
-3.2543131700e-02     3     2     2     1
-9.2716032500e-02     3     2     2     3
 8.9710000000e-07     3     2     2     4
-1.4687000000e-06     3     2     2     5
-4.0200000000e-07     3     2     4     1
 4.1207100000e-05     3     2     4     3
-4.3243034000e-03     3     2     4     4
 3.9000000000e-09     3     2     4     5
-2.1130000000e-07     3     2     5     1
-3.2461700000e-05     3     2     5     3
-7.2000000000e-09     3     2     5     4
-4.3246618000e-03     3     2     5     5
 1.0016794760e-01     3     3     1     1
-7.9041523800e-02     3     3     1     2
 3.8887100000e-04     3     3     1     4
-2.5551330000e-04     3     3     1     5
-7.9041523800e-02     3     3     2     1
 9.2716032500e-02     3     3     2     2
-4.1207100000e-05     3     3     2     4
 3.2461700000e-05     3     3     2     5
 3.8887100000e-04     3     3     4     1
-4.1207100000e-05     3     3     4     2
 1.2926994620e-01     3     3     4     4
-4.4700000000e-08     3     3     4     5
-2.5551330000e-04     3     3     5     1
 3.2461700000e-05     3     3     5     2
-4.4700000000e-08     3     3     5     4
 1.2927357390e-01     3     3     5     5
-8.0937000000e-06     3     4     1     1
-2.8097100000e-05     3     4     1     2
-3.8887100000e-04     3     4     1     3
-2.3770000000e-07     3     4     1     5
-2.8499100000e-05     3     4     2     1
-8.9710000000e-07     3     4     2     2
 4.1207100000e-05     3     4     2     3
 1.1100000000e-08     3     4     2     5
-4.0614957000e-02     3     4     4     1
 4.3243034000e-03     3     4     4     2
-1.2926994620e-01     3     4     4     3
 7.2493000000e-06     3     4     4     5
-1.1960000000e-07     3     4     5     1
 7.2000000000e-09     3     4     5     2
 4.4700000000e-08     3     4     5     3
 1.1357500000e-05     3     4     5     5
 5.3376000000e-06     3     5     1     1
 1.9011100000e-05     3     5     1     2
 2.5551330000e-04     3     5     1     3
 2.3770000000e-07     3     5     1     4
 1.8799800000e-05     3     5     2     1
 1.4687000000e-06     3     5     2     2
-3.2461700000e-05     3     5     2     3
-1.1100000000e-08     3     5     2     4
 1.1810000000e-07     3     5     4     1
-3.9000000000e-09     3     5     4     2
 4.4700000000e-08     3     5     4     3
-7.2493000000e-06     3     5     4     4
-4.0615279400e-02     3     5     5     1
 4.3246618000e-03     3     5     5     2
-1.2927357390e-01     3     5     5     3
-1.1357500000e-05     3     5     5     4
 1.1340000000e-07     4     1     1     2
 8.0937000000e-06     4     1     1     3
-1.0299430160e-01     4     1     1     4
-7.0600000000e-08     4     1     1     5
 3.1602580000e-04     4     1     2     2
 2.8097100000e-05     4     1     2     3
 7.7669767400e-02     4     1     2     4
-3.6820000000e-07     4     1     2     5
-4.0200000000e-07     4     1     3     2
 3.8887100000e-04     4     1     3     3
-4.0614957000e-02     4     1     3     4
 1.1810000000e-07     4     1     3     5
-4.0430000000e-07     4     1     5     2
 2.3770000000e-07     4     1     5     3
 2.5727420000e-04     4     1     5     4
 3.9161230000e-04     4     1     5     5
-1.1340000000e-07     4     2     1     1
 2.8499100000e-05     4     2     1     3
 7.7669767400e-02     4     2     1     4
 3.6100000000e-08     4     2     1     5
-3.1602580000e-04     4     2     2     1
 8.9710000000e-07     4     2     2     3
-9.4463081700e-02     4     2     2     4
-2.5500000000e-08     4     2     2     5
 4.0200000000e-07     4     2     3     1
-4.1207100000e-05     4     2     3     3
 4.3243034000e-03     4     2     3     4
-3.9000000000e-09     4     2     3     5
 4.0430000000e-07     4     2     5     1
-1.1100000000e-08     4     2     5     3
-3.3413100000e-05     4     2     5     4
-4.2758600000e-05     4     2     5     5
-8.0937000000e-06     4     3     1     1
-2.8499100000e-05     4     3     1     2
-4.0614957000e-02     4     3     1     4
-1.1960000000e-07     4     3     1     5
-2.8097100000e-05     4     3     2     1
-8.9710000000e-07     4     3     2     2
 4.3243034000e-03     4     3     2     4
 7.2000000000e-09     4     3     2     5
-3.8887100000e-04     4     3     3     1
 4.1207100000e-05     4     3     3     2
-1.2926994620e-01     4     3     3     4
 4.4700000000e-08     4     3     3     5
-2.3770000000e-07     4     3     5     1
 1.1100000000e-08     4     3     5     2
 7.2493000000e-06     4     3     5     4
 1.1357500000e-05     4     3     5     5
 1.0299430160e-01     4     4     1     1
-7.7669767400e-02     4     4     1     2
 4.0614957000e-02     4     4     1     3
-2.5727420000e-04     4     4     1     5
-7.7669767400e-02     4     4     2     1
 9.4463081700e-02     4     4     2     2
-4.3243034000e-03     4     4     2     3
 3.3413100000e-05     4     4     2     5
 4.0614957000e-02     4     4     3     1
-4.3243034000e-03     4     4     3     2
 1.2926994620e-01     4     4     3     3
-7.2493000000e-06     4     4     3     5
-2.5727420000e-04     4     4     5     1
 3.3413100000e-05     4     4     5     2
-7.2493000000e-06     4     4     5     3
 1.3006654310e-01     4     4     5     5
 7.0600000000e-08     4     5     1     1
-3.6100000000e-08     4     5     1     2
 1.1960000000e-07     4     5     1     3
 2.5727420000e-04     4     5     1     4
 3.6820000000e-07     4     5     2     1
 2.5500000000e-08     4     5     2     2
-7.2000000000e-09     4     5     2     3
-3.3413100000e-05     4     5     2     4