&FCI NORB=  5,NELEC=  2,MS2=0,
 ORBSYM=1,1,1,1,1
 ISYM=1,
&END
-4.7518678800e-02     1     1     2     2
 4.2049192900e-02     1     1     2     3
 1.7345351600e-02     1     1     2     4
-9.1830400000e-05     1     1     2     5
 4.2049192900e-02     1     1     3     2
 7.6202630100e-02     1     1     3     3
-2.9213752000e-03     1     1     3     4
 1.6137800000e-05     1     1     3     5
 1.7345351600e-02     1     1     4     2
-2.9213752000e-03     1     1     4     3
 8.8302050300e-02     1     1     4     4
 2.1193400000e-05     1     1     4     5
-9.1830400000e-05     1     1     5     2
 1.6137800000e-05     1     1     5     3
 2.1193400000e-05     1     1     5     4
 9.3307971700e-02     1     1     5     5
 4.7518678800e-02     1     2     2     1
-1.8755394200e-02     1     2     2     3
-2.4353666700e-02     1     2     2     4
 1.2850920000e-04     1     2     2     5
-4.2049192900e-02     1     2     3     1
-7.0494601100e-02     1     2     3     3
 8.6650789000e-03     1     2     3     4
-4.5379000000e-05     1     2     3     5
-1.7345351600e-02     1     2     4     1
 1.1576782500e-02     1     2     4     3
-8.1301952300e-02     1     2     4     4
-3.8946800000e-05     1     2     4     5
 9.1830400000e-05     1     2     5     1
-6.0793400000e-05     1     2     5     3
-3.8927200000e-05     1     2     5     4
-8.8037030900e-02     1     2     5     5
-4.2049192900e-02     1     3     2     1
 1.8755394200e-02     1     3     2     2
-2.9117036000e-03     1     3     2     4
 1.5414400000e-05     1     3     2     5
-7.6202630100e-02     1     3     3     1
 7.0494601100e-02     1     3     3     2
 2.6296386000e-03     1     3     3     4
-1.4207300000e-05     1     3     3     5
 2.9213752000e-03     1     3     4     1
-1.1576782500e-02     1     3     4     2
-5.4560241100e-02     1     3     4     4
-8.1338000000e-06     1     3     4     5
-1.6137800000e-05     1     3     5     1
 6.0793400000e-05     1     3     5     2
-8.0193000000e-06     1     3     5     4
-5.6851915500e-02     1     3     5     5
-1.7345351600e-02     1     4     2     1
 2.4353666700e-02     1     4     2     2
 2.9117036000e-03     1     4     2     3
-1.9600000000e-08     1     4     2     5
 2.9213752000e-03     1     4     3     1
-8.6650789000e-03     1     4     3     2
-2.6296386000e-03     1     4     3     3
-1.1450000000e-07     1     4     3     5
-8.8302050300e-02     1     4     4     1
 8.1301952300e-02     1     4     4     2
 5.4560241100e-02     1     4     4     3
-5.1343000000e-06     1     4     4     5
-2.1193400000e-05     1     4     5     1
 3.8927200000e-05     1     4     5     2
 8.0193000000e-06     1     4     5     3
-9.5872070000e-04     1     4     5     5
 9.1830400000e-05     1     5     2     1
-1.2850920000e-04     1     5     2     2
-1.5414400000e-05     1     5     2     3
 1.9600000000e-08     1     5     2     4
-1.6137800000e-05     1     5     3     1
 4.5379000000e-05     1     5     3     2
 1.4207300000e-05     1     5     3     3
 1.1450000000e-07     1     5     3     4
-2.1193400000e-05     1     5     4     1
 3.8946800000e-05     1     5     4     2
 8.1338000000e-06     1     5     4     3
 5.1343000000e-06     1     5     4     4
-9.3307971700e-02     1     5     5     1
 8.8037030900e-02     1     5     5     2
 5.6851915500e-02     1     5     5     3
 9.5872070000e-04     1     5     5     4
 4.7518678800e-02     2     1     1     2
-4.2049192900e-02     2     1     1     3
-1.7345351600e-02     2     1     1     4
 9.1830400000e-05     2     1     1     5
-1.8755394200e-02     2     1     3     2
-7.0494601100e-02     2     1     3     3
 1.1576782500e-02     2     1     3     4
-6.0793400000e-05     2     1     3     5
-2.4353666700e-02     2     1     4     2
 8.6650789000e-03     2     1     4     3
-8.1301952300e-02     2     1     4     4
-3.8927200000e-05     2     1     4     5
 1.2850920000e-04     2     1     5     2
-4.5379000000e-05     2     1     5     3
-3.8946800000e-05     2     1     5     4
-8.8037030900e-02     2     1     5     5
-4.7518678800e-02     2     2     1     1
 1.8755394200e-02     2     2     1     3
 2.4353666700e-02     2     2     1     4
-1.2850920000e-04     2     2     1     5
 1.8755394200e-02     2     2     3     1
-2.6935526200e-02     2     2     3     3
-8.4033595000e-03     2     2     3     4
 4.4836500000e-05     2     2     3     5
 2.4353666700e-02     2     2     4     1
-8.4033595000e-03     2     2     4     3
 8.7747006000e-03     2     2     4     4
-5.9022000000e-06     2     2     4     5
-1.2850920000e-04     2     2     5     1
 4.4836500000e-05     2     2     5     3
-5.9022000000e-06     2     2     5     4
 8.6838187000e-03     2     2     5     5
 4.2049192900e-02     2     3     1     1
-1.8755394200e-02     2     3     1     2
 2.9117036000e-03     2     3     1     4
-1.5414400000e-05     2     3     1     5
 7.0494601100e-02     2     3     3     1
 2.6935526200e-02     2     3     3     2
-3.2057414800e-02     2     3     3     4
 1.6940580000e-04     2     3     3     5
-8.6650789000e-03     2     3     4     1
 8.4033595000e-03     2     3     4     2
 7.4679604500e-02     2     3     4     4
 1.8540800000e-05     2     3     4     5
 4.5379000000e-05     2     3     5     1
-4.4836500000e-05     2     3     5     2
 1.8408800000e-05     2     3     5     4
 7.7731393100e-02     2     3     5     5
 1.7345351600e-02     2     4     1     1
-2.4353666700e-02     2     4     1     2
-2.9117036000e-03     2     4     1     3
 1.9600000000e-08     2     4     1     5
-1.1576782500e-02     2     4     3     1
 8.4033595000e-03     2     4     3     2
 3.2057414800e-02     2     4     3     3
 1.3200000000e-07     2     4     3     5
 8.1301952300e-02     2     4     4     1
-8.7747006000e-03     2     4     4     2
-7.4679604500e-02     2     4     4     3
 1.5906230000e-04     2     4     4     5
 3.8946800000e-05     2     4     5     1
 5.9022000000e-06     2     4     5     2
-1.8408800000e-05     2     4     5     3
 2.9713804800e-02     2     4     5     5
-9.1830400000e-05     2     5     1     1
 1.2850920000e-04     2     5     1     2
 1.5414400000e-05     2     5     1     3
-1.9600000000e-08     2     5     1     4
 6.0793400000e-05     2     5     3     1
-4.4836500000e-05     2     5     3     2
-1.6940580000e-04     2     5     3     3
-1.3200000000e-07     2     5     3     4
 3.8927200000e-05     2     5     4     1
 5.9022000000e-06     2     5     4     2
-1.8540800000e-05     2     5     4     3
-1.5906230000e-04     2     5     4     4
 8.8037030900e-02     2     5     5     1
-8.6838187000e-03     2     5     5     2
-7.7731393100e-02     2     5     5     3
-2.9713804800e-02     2     5     5     4
-4.2049192900e-02     3     1     1     2
-7.6202630100e-02     3     1     1     3
 2.9213752000e-03     3     1     1     4
-1.6137800000e-05     3     1     1     5
 1.8755394200e-02     3     1     2     2
 7.0494601100e-02     3     1     2     3
-1.1576782500e-02     3     1     2     4
 6.0793400000e-05     3     1     2     5
-2.9117036000e-03     3     1     4     2
 2.6296386000e-03     3     1     4     3
-5.4560241100e-02     3     1     4     4
-8.0193000000e-06     3     1     4     5
 1.5414400000e-05     3     1     5     2
-1.4207300000e-05     3     1     5     3
-8.1338000000e-06     3     1     5     4
-5.6851915500e-02     3     1     5     5
 4.2049192900e-02     3     2     1     1
 7.0494601100e-02     3     2     1     3
-8.6650789000e-03     3     2     1     4
 4.5379000000e-05     3     2     1     5
-1.8755394200e-02     3     2     2     1
 2.6935526200e-02     3     2     2     3
 8.4033595000e-03     3     2     2     4
-4.4836500000e-05     3     2     2     5
 2.9117036000e-03     3     2     4     1
-3.2057414800e-02     3     2     4     3
 7.4679604500e-02     3     2     4     4
 1.8408800000e-05     3     2     4     5
-1.5414400000e-05     3     2     5     1
 1.6940580000e-04     3     2     5     3
 1.8540800000e-05     3     2     5     4
 7.7731393100e-02     3     2     5     5
 7.6202630100e-02     3     3     1     1
-7.0494601100e-02     3     3     1     2
-2.6296386000e-03     3     3     1     4
 1.4207300000e-05     3     3     1     5
-7.0494601100e-02     3     3     2     1
-2.6935526200e-02     3     3     2     2
 3.2057414800e-02     3     3     2     4
-1.6940580000e-04     3     3     2     5
-2.6296386000e-03     3     3     4     1
 3.2057414800e-02     3     3     4     2
 1.0775293550e-01     3     3     4     4
 3.8054400000e-05     3     3     4     5
 1.4207300000e-05     3     3     5     1
-1.6940580000e-04     3     3     5     2
 3.8054400000e-05     3     3     5     4
 1.1607242930e-01     3     3     5     5
-2.9213752000e-03     3     4     1     1
 8.6650789000e-03     3     4     1     2
 2.6296386000e-03     3     4     1     3
 1.1450000000e-07     3     4     1     5
 1.1576782500e-02     3     4     2     1
-8.4033595000e-03     3     4     2     2
-3.2057414800e-02     3     4     2     3
-1.3200000000e-07     3     4     2     5
 5.4560241100e-02     3     4     4     1
-7.4679604500e-02     3     4     4     2
-1.0775293550e-01     3     4     4     3
-4.6769700000e-05     3     4     4     5
 8.1338000000e-06     3     4     5     1
-1.8540800000e-05     3     4     5     2
-3.8054400000e-05     3     4     5     3
-8.3238424000e-03     3     4     5     5
 1.6137800000e-05     3     5     1     1
-4.5379000000e-05     3     5     1     2
-1.4207300000e-05     3     5     1     3
-1.1450000000e-07     3     5     1     4
-6.0793400000e-05     3     5     2     1
 4.4836500000e-05     3     5     2     2
 1.6940580000e-04     3     5     2     3
 1.3200000000e-07     3     5     2     4
 8.0193000000e-06     3     5     4     1
-1.8408800000e-05     3     5     4     2
-3.8054400000e-05     3     5     4     3
 4.6769700000e-05     3     5     4     4
 5.6851915500e-02     3     5     5     1
-7.7731393100e-02     3     5     5     2
-1.1607242930e-01     3     5     5     3
 8.3238424000e-03     3     5     5     4
-1.7345351600e-02     4     1     1     2
 2.9213752000e-03     4     1     1     3
-8.8302050300e-02     4     1     1     4
-2.1193400000e-05     4     1     1     5
 2.4353666700e-02     4     1     2     2
-8.6650789000e-03     4     1     2     3
 8.1301952300e-02     4     1     2     4
 3.8927200000e-05     4     1     2     5
 2.9117036000e-03     4     1     3     2
-2.6296386000e-03     4     1     3     3
 5.4560241100e-02     4     1     3     4
 8.0193000000e-06     4     1     3     5
-1.9600000000e-08     4     1     5     2
-1.1450000000e-07     4     1     5     3
-5.1343000000e-06     4     1     5     4
-9.5872070000e-04     4     1     5     5
 1.7345351600e-02     4     2     1     1
-1.1576782500e-02     4     2     1     3
 8.1301952300e-02     4     2     1     4
 3.8946800000e-05     4     2     1     5
-2.4353666700e-02     4     2     2     1
 8.4033595000e-03     4     2     2     3
-8.7747006000e-03     4     2     2     4
 5.9022000000e-06     4     2     2     5
-2.9117036000e-03     4     2     3     1
 3.2057414800e-02     4     2     3     3
-7.4679604500e-02     4     2     3     4
-1.8408800000e-05     4     2     3     5
 1.9600000000e-08     4     2     5     1
 1.3200000000e-07     4     2     5     3
 1.5906230000e-04     4     2     5     4
 2.9713804800e-02     4     2     5     5
-2.9213752000e-03     4     3     1     1
 1.1576782500e-02     4     3     1     2
 5.4560241100e-02     4     3     1     4
 8.1338000000e-06     4     3     1     5
 8.6650789000e-03     4     3     2     1
-8.4033595000e-03     4     3     2     2
-7.4679604500e-02     4     3     2     4
-1.8540800000e-05     4     3     2     5
 2.6296386000e-03     4     3     3     1
-3.2057414800e-02     4     3     3     2
-1.0775293550e-01     4     3     3     4
-3.8054400000e-05     4     3     3     5
 1.1450000000e-07     4     3     5     1
-1.3200000000e-07     4     3     5     2
-4.6769700000e-05     4     3     5     4
-8.3238424000e-03     4     3     5     5
 8.8302050300e-02     4     4     1     1
-8.1301952300e-02     4     4     1     2
-5.4560241100e-02     4     4     1     3
 5.1343000000e-06     4     4     1     5
-8.1301952300e-02     4     4     2     1
 8.7747006000e-03     4     4     2     2
 7.4679604500e-02     4     4     2     3
-1.5906230000e-04     4     4     2     5
-5.4560241100e-02     4     4     3     1
 7.4679604500e-02     4     4     3     2
 1.0775293550e-01     4     4     3     3
 4.6769700000e-05     4     4     3     5
 5.1343000000e-06     4     4     5     1
-1.5906230000e-04     4     4     5     2
 4.6769700000e-05     4     4     5     3
 1.3001713580e-01     4     4     5     5
 2.1193400000e-05     4     5     1     1
-3.8946800000e-05     4     5     1     2
-8.1338000000e-06     4     5     1     3
-5.1343000000e-06     4     5     1     4
-3.8927200000e-05     4     5     2     1
-5.9022000000e-06     4     5     2     2
 1.8540800000e-05     4     5     2     3
 1.5906230000e-04     4     5     2     4
-8.0193000000e-06     4     5     3     1
 1.8408800000e-05     4     5     3     2
 3.8054400000e-05     4     5     3     3
-4.6769700000e-05     4     5     3     4
 9.5872070000e-04     4     5     5     1
-2.9713804800e-02     4     5     5     2
 8.3238424000e-03     4     5     5     3
-1.3001713580e-01     4     5     5     4
 9.1830400000e-05     5     1     1     2
-1.6137800000e-05     5     1     1     3
-2.1193400000e-05     5     1     1     4
-9.3307971700e-02     5     1     1     5
-1.2850920000e-04     5     1     2     2
 4.5379000000e-05     5     1     2     3
 3.8946800000e-05     5     1     2     4
 8.8037030900e-02     5     1     2     5
-1.5414400000e-05     5     1     3     2
 1.4207300000e-05     5     1     3     3
 8.1338000000e-06     5     1     3     4
 5.6851915500e-02     5     1     3     5
 1.9600000000e-08     5     1     4     2
 1.1450000000e-07     5     1     4     3
 5.1343000000e-06     5     1     4     4
 9.5872070000e-04     5     1     4     5
-9.1830400000e-05     5     2     1     1
 6.0793400000e-05     5     2     1     3
 3.8927200000e-05     5     2     1     4
 8.8037030900e-02     5     2     1     5
 1.2850920000e-04     5     2     2     1
-4.4836500000e-05     5     2     2     3
 5.9022000000e-06     5     2     2     4
-8.6838187000e-03     5     2     2     5
 1.5414400000e-05     5     2     3     1
-1.6940580000e-04     5     2     3     3
-1.8540800000e-05     5     2     3     4
-7.7731393100e-02     5     2     3     5
-1.9600000000e-08     5     2     4     1
-1.3200000000e-07     5     2     4     3
-1.5906230000e-04     5     2     4     4
-2.9713804800e-02     5     2     4     5
 1.6137800000e-05     5     3     1     1
-6.0793400000e-05     5     3     1     2
 8.0193000000e-06     5     3     1     4
 5.6851915500e-02     5     3     1     5
-4.5379000000e-05     5     3     2     1
 4.4836500000e-05     5     3     2     2
-1.8408800000e-05     5     3     2     4
-7.7731393100e-02     5     3     2     5
-1.4207300000e-05     5     3     3     1
 1.6940580000e-04     5     3     3     2
-3.8054400000e-05     5     3     3     4
-1.1607242930e-01     5     3     3     5
-1.1450000000e-07     5     3     4     1
 1.3200000000e-07     5     3     4     2
 4.6769700000e-05     5     3     4     4
 8.3238424000e-03     5     3     4     5
 2.1193400000e-05     5     4     1     1
-3.8927200000e-05     5     4     1     2
-8.0193000000e-06     5     4     1     3
 9.5872070000e-04     5     4     1     5
-3.8946800000e-05     5     4     2     1
-5.9022000000e-06     5     4     2     2
 1.8408800000e-05     5     4     2     3
-2.9713804800e-02     5     4     2     5
-8.1338000000e-06     5     4     3     1
 1.8540800000e-05     5     4     3     2
 3.8054400000e-05     5     4     3     3
 8.3238424000e-03     5     4     3     5
-5.1343000000e-06     5     4     4     1
 1.5906230000e-04     5     4     4     2
-4.6769700000e-05     5     4     4     3
-1.3001713580e-01     5     4     4     5
 9.3307971700e-02     5     5     1     1
-8.8037030900e-02     5     5     1     2
-5.6851915500e-02     5     5     1     3
-9.5872070000e-04     5     5     1     4
-8.8037030900e-02     5     5     2     1
 8.6838187000e-03     5     5     2     2
 7.7731393100e-02     5     5     2     3
 2.9713804800e-02     5     5     2     4
-5.6851915500e-02     5     5     3     1
 7.7731393100e-02     5     5     3     2
 1.1607242930e-01     5     5     3     3
-8.3238424000e-03     5     5     3     4
-9.5872070000e-04     5     5     4     1
 2.9713804800e-02     5     5     4     2
-8.3238424000e-03     5     5     4     3
 1.3001713580e-01     5     5     4     4
0.0 0 0 0 0
-4.7518678800e-02     1     1     2     2
 4.2049192900e-02     1     1     2     3
 1.7345351600e-02     1     1     2     4
-9.1830400000e-05     1     1     2     5
 4.2049192900e-02     1     1     3     2
 7.6202630100e-02     1     1     3     3
-2.9213752000e-03     1     1     3     4
 1.6137800000e-05     1     1     3     5
 1.7345351600e-02     1     1     4     2
-2.9213752000e-03     1     1     4     3
 8.8302050300e-02     1     1     4     4
 2.1193400000e-05     1     1     4     5
-9.1830400000e-05     1     1     5     2
 1.6137800000e-05     1     1     5     3
 2.1193400000e-05     1     1     5     4
 9.3307971700e-02     1     1     5     5
 4.7518678800e-02     1     2     2     1
-1.8755394200e-02     1     2     2     3
-2.4353666700e-02     1     2     2     4
 1.2850920000e-04     1     2     2     5
-4.2049192900e-02     1     2     3     1
-7.0494601100e-02     1     2     3     3
 8.6650789000e-03     1     2     3     4
-4.5379000000e-05     1     2     3     5
-1.7345351600e-02     1     2     4     1
 1.1576782500e-02     1     2     4     3
-8.1301952300e-02     1     2     4     4
-3.8946800000e-05     1     2     4     5
 9.1830400000e-05     1     2     5     1
-6.0793400000e-05     1     2     5     3
-3.8927200000e-05     1     2     5     4
-8.8037030900e-02     1     2     5     5
-4.2049192900e-02     1     3     2     1
 1.8755394200e-02     1     3     2     2
-2.9117036000e-03     1     3     2     4
 1.5414400000e-05     1     3     2     5
-7.6202630100e-02     1     3     3     1
 7.0494601100e-02     1     3     3     2
 2.6296386000e-03     1     3     3     4
-1.4207300000e-05     1     3     3     5
 2.9213752000e-03     1     3     4     1
-1.1576782500e-02     1     3     4     2
-5.4560241100e-02     1     3     4     4
-8.1338000000e-06     1     3     4     5
-1.6137800000e-05     1     3     5     1
 6.0793400000e-05     1     3     5     2
-8.0193000000e-06     1     3     5     4
-5.6851915500e-02     1     3     5     5
-1.7345351600e-02     1     4     2     1
 2.4353666700e-02     1     4     2     2
 2.9117036000e-03     1     4     2     3
-1.9600000000e-08     1     4     2     5
 2.9213752000e-03     1     4     3     1
-8.6650789000e-03     1     4     3     2
-2.6296386000e-03     1     4     3     3
-1.1450000000e-07     1     4     3     5
-8.8302050300e-02     1     4     4     1
 8.1301952300e-02     1     4     4     2
 5.4560241100e-02     1     4     4     3
-5.1343000000e-06     1     4     4     5
-2.1193400000e-05     1     4     5     1
 3.8927200000e-05     1     4     5     2
 8.0193000000e-06     1     4     5     3
-9.5872070000e-04     1     4     5     5
 9.1830400000e-05     1     5     2     1
-1.2850920000e-04     1     5     2     2
-1.5414400000e-05     1     5     2     3
 1.9600000000e-08     1     5     2     4
-1.6137800000e-05     1     5     3     1
 4.5379000000e-05     1     5     3     2
 1.4207300000e-05     1     5     3     3
 1.1450000000e-07     1     5     3     4
-2.1193400000e-05     1     5     4     1
 3.8946800000e-05     1     5     4     2
 8.1338000000e-06     1     5     4     3
 5.1343000000e-06     1     5     4     4
-9.3307971700e-02     1     5     5     1
 8.8037030900e-02     1     5     5     2
 5.6851915500e-02     1     5     5     3
 9.5872070000e-04     1     5     5     4
 4.7518678800e-02     2     1     1     2
-4.2049192900e-02     2     1     1     3
-1.7345351600e-02     2     1     1     4
 9.1830400000e-05     2     1     1     5
-1.8755394200e-02     2     1     3     2
-7.0494601100e-02     2     1     3     3
 1.1576782500e-02     2     1     3     4
-6.0793400000e-05     2     1     3     5
-2.4353666700e-02     2     1     4     2
 8.6650789000e-03     2     1     4     3
-8.1301952300e-02     2     1     4     4
-3.8927200000e-05     2     1     4     5
 1.2850920000e-04     2     1     5     2
-4.5379000000e-05     2     1     5     3
-3.8946800000e-05     2     1     5     4
-8.8037030900e-02     2     1     5     5
-4.7518678800e-02     2     2     1     1
 1.8755394200e-02     2     2     1     3
 2.4353666700e-02     2     2     1     4
-1.2850920000e-04     2     2     1     5
 1.8755394200e-02     2     2     3     1
-2.6935526200e-02     2     2     3     3
-8.4033595000e-03     2     2     3     4
 4.4836500000e-05     2     2     3     5
 2.4353666700e-02     2     2     4     1
-8.4033595000e-03     2     2     4     3
 8.7747006000e-03     2     2     4     4
-5.9022000000e-06     2     2     4     5
-1.2850920000e-04     2     2     5     1
 4.4836500000e-05     2     2     5     3
-5.9022000000e-06     2     2     5     4
 8.6838187000e-03     2     2     5     5
 4.2049192900e-02     2     3     1     1
-1.8755394200e-02     2     3     1     2
 2.9117036000e-03     2     3     1     4
-1.5414400000e-05     2     3     1     5
 7.0494601100e-02     2     3     3     1
 2.6935526200e-02     2     3     3     2
-3.2057414800e-02     2     3     3     4
 1.6940580000e-04     2     3     3     5
-8.6650789000e-03     2     3     4     1
 8.4033595000e-03     2     3     4     2
 7.4679604500e-02     2     3     4     4
 1.8540800000e-05     2     3     4     5
 4.5379000000e-05     2     3     5     1
-4.4836500000e-05     2     3     5     2
 1.8408800000e-05     2     3     5     4
 7.7731393100e-02     2     3     5     5
 1.7345351600e-02     2     4     1     1
-2.4353666700e-02     2     4     1     2
-2.9117036000e-03     2     4     1     3
 1.9600000000e-08     2     4     1     5
-1.1576782500e-02     2     4     3     1
 8.4033595000e-03     2     4     3     2
 3.2057414800e-02     2     4     3     3
 1.3200000000e-07     2     4     3     5
 8.1301952300e-02     2     4     4     1
-8.7747006000e-03     2     4     4     2
-7.4679604500e-02     2     4     4     3
 1.5906230000e-04     2     4     4     5
 3.8946800000e-05     2     4     5     1
 5.9022000000e-06     2     4     5     2
-1.8408800000e-05     2     4     5     3
 2.9713804800e-02     2     4     5     5
-9.1830400000e-05     2     5     1     1
 1.2850920000e-04     2     5     1     2
 1.5414400000e-05     2     5     1     3
-1.9600000000e-08     2     5     1     4
 6.0793400000e-05     2     5     3     1
-4.4836500000e-05     2     5     3     2
-1.6940580000e-04     2     5     3     3
-1.3200000000e-07     2     5     3     4
 3.8927200000e-05     2     5     4     1
 5.9022000000e-06     2     5     4     2
-1.8540800000e-05     2     5     4     3
-1.5906230000e-04     2     5     4     4
 8.8037030900e-02     2     5     5     1
-8.6838187000e-03     2     5     5     2
-7.7731393100e-02     2     5     5     3
-2.9713804800e-02     2     5     5     4
-4.2049192900e-02     3     1     1     2
-7.6202630100e-02     3     1     1     3
 2.9213752000e-03     3     1     1     4
-1.6137800000e-05     3     1     1     5
 1.8755394200e-02     3     1     2     2
 7.0494601100e-02     3     1     2     3
-1.1576782500e-02     3     1     2     4
 6.0793400000e-05     3     1     2     5
-2.9117036000e-03     3     1     4     2
 2.6296386000e-03     3     1     4     3
-5.4560241100e-02     3     1     4     4
-8.0193000000e-06     3     1     4     5
 1.5414400000e-05     3     1     5     2
-1.4207300000e-05     3     1     5     3
-8.1338000000e-06     3     1     5     4
-5.6851915500e-02     3     1     5     5
 4.2049192900e-02     3     2     1     1
 7.0494601100e-02     3     2     1     3
-8.6650789000e-03     3     2     1     4
 4.5379000000e-05     3     2     1     5
-1.8755394200e-02     3     2     2     1
 2.6935526200e-02     3     2     2     3
 8.4033595000e-03     3     2     2     4
-4.4836500000e-05     3     2     2     5
 2.9117036000e-03     3     2     4     1
-3.2057414800e-02     3     2     4     3
 7.4679604500e-02     3     2     4     4
 1.8408800000e-05     3     2     4     5
-1.5414400000e-05     3     2     5     1
 1.6940580000e-04     3     2     5     3
 1.8540800000e-05     3     2     5     4
 7.7731393100e-02     3     2     5     5
 7.6202630100e-02     3     3     1     1
-7.0494601100e-02     3     3     1     2
-2.6296386000e-03     3     3     1     4
 1.4207300000e-05     3     3     1     5
-7.0494601100e-02     3     3     2     1
-2.6935526200e-02     3     3     2     2
 3.2057414800e-02     3     3     2     4
-1.6940580000e-04     3     3     2     5
-2.6296386000e-03     3     3     4     1
 3.2057414800e-02     3     3     4     2
 1.0775293550e-01     3     3     4     4
 3.8054400000e-05     3     3     4     5
 1.4207300000e-05     3     3     5     1
-1.6940580000e-04     3     3     5     2
 3.8054400000e-05     3     3     5     4
 1.1607242930e-01     3     3     5     5
-2.9213752000e-03     3     4     1     1
 8.6650789000e-03     3     4     1     2
 2.6296386000e-03     3     4     1     3
 1.1450000000e-07     3     4     1     5
 1.1576782500e-02     3     4     2     1
-8.4033595000e-03     3     4     2     2
-3.2057414800e-02     3     4     2     3
-1.3200000000e-07     3     4     2     5
 5.4560241100e-02     3     4     4     1
-7.4679604500e-02     3     4     4     2
-1.0775293550e-01     3     4     4     3
-4.6769700000e-05     3     4     4     5
 8.1338000000e-06     3     4     5     1
-1.8540800000e-05     3     4     5     2
-3.8054400000e-05     3     4     5     3
-8.3238424000e-03     3     4     5     5
 1.6137800000e-05     3     5     1     1
-4.5379000000e-05     3     5     1     2
-1.4207300000e-05     3     5     1     3
-1.1450000000e-07     3     5     1     4
-6.0793400000e-05     3     5     2     1
 4.4836500000e-05     3     5     2     2
 1.6940580000e-04     3     5     2     3
 1.3200000000e-07     3     5     2     4
 8.0193000000e-06     3     5     4     1
-1.8408800000e-05     3     5     4     2
-3.8054400000e-05     3     5     4     3
 4.6769700000e-05     3     5     4     4
 5.6851915500e-02     3     5     5     1
-7.7731393100e-02     3     5     5     2
-1.1607242930e-01     3     5     5     3
 8.3238424000e-03     3     5     5     4
-1.7345351600e-02     4     1     1     2
 2.9213752000e-03     4     1     1     3
-8.8302050300e-02     4     1     1     4
-2.1193400000e-05     4     1     1     5
 2.4353666700e-02     4     1     2     2
-8.6650789000e-03     4     1     2     3
 8.1301952300e-02     4     1     2     4
 3.8927200000e-05     4     1     2     5
 2.9117036000e-03     4     1     3     2
-2.6296386000e-03     4     1     3     3
 5.4560241100e-02     4     1     3     4
 8.0193000000e-06     4     1     3     5
-1.9600000000e-08     4     1     5     2
-1.1450000000e-07     4     1     5     3
-5.1343000000e-06     4     1     5     4
-9.5872070000e-04     4     1     5     5
 1.7345351600e-02     4     2     1     1
-1.1576782500e-02     4     2     1     3
 8.1301952300e-02     4     2     1     4
 3.8946800000e-05     4     2     1     5
-2.4353666700e-02     4     2     2     1
 8.4033595000e-03     4     2     2     3
-8.7747006000e-03     4     2     2     4
 5.9022000000e-06     4     2     2     5
-2.9117036000e-03     4     2     3     1
 3.2057414800e-02     4     2     3     3
-7.4679604500e-02     4     2     3     4
-1.8408800000e-05     4     2     3     5
 1.9600000000e-08     4     2     5     1
 1.3200000000e-07     4     2     5     3
 1.5906230000e-04     4     2     5     4
 2.9713804800e-02     4     2     5     5
-2.9213752000e-03     4     3     1     1
 1.1576782500e-02     4     3     1     2
 5.4560241100e-02     4     3     1     4
 8.1338000000e-06     4     3     1     5
 8.6650789000e-03     4     3     2     1
-8.4033595000e-03     4     3     2     2
-7.4679604500e-02     4     3     2     4
-1.8540800000e-05     4     3     2     5
 2.6296386000e-03     4     3     3     1
-3.2057414800e-02     4     3     3     2
-1.0775293550e-01     4     3     3     4
-3.8054400000e-05     4     3     3     5
 1.1450000000e-07     4     3     5     1
-1.3200000000e-07     4     3     5     2
-4.6769700000e-05     4     3     5     4
-8.3238424000e-03     4     3     5     5
 8.8302050300e-02     4     4     1     1
-8.1301952300e-02     4     4     1     2
-5.4560241100e-02     4     4     1     3
 5.1343000000e-06     4     4     1     5
-8.1301952300e-02     4     4     2     1
 8.7747006000e-03     4     4     2     2
 7.4679604500e-02     4     4     2     3
-1.5906230000e-04     4     4     2     5
-5.4560241100e-02     4     4     3     1
 7.4679604500e-02     4     4     3     2
 1.0775293550e-01     4     4     3     3
 4.6769700000e-05     4     4     3     5
 5.1343000000e-06     4     4     5     1
-1.5906230000e-04     4     4     5     2
 4.6769700000e-05     4     4     5     3
 1.3001713580e-01     4     4     5     5
 2.1193400000e-05     4     5     1     1
-3.8946800000e-05     4     5     1     2
-8.1338000000e-06     4     5     1     3
-5.1343000000e-06     4     5     1     4
-3.8927200000e-05     4     5     2     1
-5.9022000000e-06     4     5     2     2
 1.8540800000e-05     4     5     2     3
 1.5906230000e-04     4     5     2     4