&FCI NORB=  5,NELEC=  2,MS2=0,
 ORBSYM=1,1,1,1,1
 ISYM=1,
&END
 1.2745050520e-01     1     1     2     2
-2.5379300000e-05     1     1     2     3
-3.4601700000e-05     1     1     2     4
 9.4960834000e-03     1     1     2     5
-2.5379300000e-05     1     1     3     2
 1.5741853890e-01     1     1     3     3
 1.8080000000e-07     1     1     3     4
-4.4261600000e-05     1     1     3     5
-3.4601700000e-05     1     1     4     2
 1.8080000000e-07     1     1     4     3
 1.5741980230e-01     1     1     4     4
-6.0309200000e-05     1     1     4     5
 9.4960834000e-03     1     1     5     2
-4.4261600000e-05     1     1     5     3
-6.0309200000e-05     1     1     5     4
 1.7867481290e-01     1     1     5     5
-1.2745050520e-01     1     2     2     1
-6.0013300000e-05     1     2     2     3
-8.1625600000e-05     1     2     2     4
 2.1285370200e-02     1     2     2     5
 2.5379300000e-05     1     2     3     1
 9.6290778900e-02     1     2     3     3
 1.4210000000e-07     1     2     3     4
-5.9078000000e-06     1     2     3     5
 3.4601700000e-05     1     2     4     1
-7.6000000000e-08     1     2     4     3
 9.6291243700e-02     1     2     4     4
-8.0490000000e-06     1     2     4     5
-9.4960834000e-03     1     2     5     1
-7.6078000000e-06     1     2     5     3
-1.0355300000e-05     1     2     5     4
 1.0095109510e-01     1     2     5     5
 2.5379300000e-05     1     3     2     1
 6.0013300000e-05     1     3     2     2
 2.1810000000e-07     1     3     2     4
 1.7000000000e-06     1     3     2     5
-1.5741853890e-01     1     3     3     1
-9.6290778900e-02     1     3     3     2
-7.6000200000e-05     1     3     3     4
 1.9901970700e-02     1     3     3     5
-1.8080000000e-07     1     3     4     1
 7.6000000000e-08     1     3     4     2
 5.5912700000e-05     1     3     4     4
-4.2900000000e-08     1     3     4     5
 4.4261600000e-05     1     3     5     1
 7.6078000000e-06     1     3     5     2
-4.8200000000e-08     1     3     5     4
 6.1619400000e-05     1     3     5     5
 3.4601700000e-05     1     4     2     1
 8.1625600000e-05     1     4     2     2
-2.1810000000e-07     1     4     2     3
 2.3063000000e-06     1     4     2     5
-1.8080000000e-07     1     4     3     1
-1.4210000000e-07     1     4     3     2
 7.6000200000e-05     1     4     3     3
 5.3000000000e-09     1     4     3     5
-1.5741980230e-01     1     4     4     1
-9.6291243700e-02     1     4     4     2
-5.5912700000e-05     1     4     4     3
 1.9901927200e-02     1     4     4     5
 6.0309200000e-05     1     4     5     1
 1.0355300000e-05     1     4     5     2
 4.8200000000e-08     1     4     5     3
 8.3770500000e-05     1     4     5     5
-9.4960834000e-03     1     5     2     1
-2.1285370200e-02     1     5     2     2
-1.7000000000e-06     1     5     2     3
-2.3063000000e-06     1     5     2     4
 4.4261600000e-05     1     5     3     1
 5.9078000000e-06     1     5     3     2
-1.9901970700e-02     1     5     3     3
-5.3000000000e-09     1     5     3     4
 6.0309200000e-05     1     5     4     1
 8.0490000000e-06     1     5     4     2
 4.2900000000e-08     1     5     4     3
-1.9901927200e-02     1     5     4     4
-1.7867481290e-01     1     5     5     1
-1.0095109510e-01     1     5     5     2
-6.1619400000e-05     1     5     5     3
-8.3770500000e-05     1     5     5     4
-1.2745050520e-01     2     1     1     2
 2.5379300000e-05     2     1     1     3
 3.4601700000e-05     2     1     1     4
-9.4960834000e-03     2     1     1     5
-6.0013300000e-05     2     1     3     2
 9.6290778900e-02     2     1     3     3
-7.6000000000e-08     2     1     3     4
-7.6078000000e-06     2     1     3     5
-8.1625600000e-05     2     1     4     2
 1.4210000000e-07     2     1     4     3
 9.6291243700e-02     2     1     4     4
-1.0355300000e-05     2     1     4     5
 2.1285370200e-02     2     1     5     2
-5.9078000000e-06     2     1     5     3
-8.0490000000e-06     2     1     5     4
 1.0095109510e-01     2     1     5     5
 1.2745050520e-01     2     2     1     1
 6.0013300000e-05     2     2     1     3
 8.1625600000e-05     2     2     1     4
-2.1285370200e-02     2     2     1     5
 6.0013300000e-05     2     2     3     1
 1.6691967710e-01     2     2     3     3
 1.6720000000e-07     2     2     3     4
-3.9296300000e-05     2     2     3     5
 8.1625600000e-05     2     2     4     1
 1.6720000000e-07     2     2     4     3
 1.6692108770e-01     2     2     4     4
-5.3532600000e-05     2     2     4     5
-2.1285370200e-02     2     2     5     1
-3.9296300000e-05     2     2     5     3
-5.3532600000e-05     2     2     5     4
 1.8698876930e-01     2     2     5     5
-2.5379300000e-05     2     3     1     1
-6.0013300000e-05     2     3     1     2
-2.1810000000e-07     2     3     1     4
-1.7000000000e-06     2     3     1     5
-9.6290778900e-02     2     3     3     1
-1.6691967710e-01     2     3     3     2
 2.3166500000e-05     2     3     3     4
-6.4605536000e-03     2     3     3     5
-1.4210000000e-07     2     3     4     1
-1.6720000000e-07     2     3     4     2
-1.6968700000e-05     2     3     4     4
 4.8000000000e-09     2     3     4     5
 5.9078000000e-06     2     3     5     1
 3.9296300000e-05     2     3     5     2
 3.1500000000e-08     2     3     5     4
-1.6314900000e-05     2     3     5     5
-3.4601700000e-05     2     4     1     1
-8.1625600000e-05     2     4     1     2
 2.1810000000e-07     2     4     1     3
-2.3063000000e-06     2     4     1     5
 7.6000000000e-08     2     4     3     1
-1.6720000000e-07     2     4     3     2
-2.3166500000e-05     2     4     3     3
-2.6700000000e-08     2     4     3     5
-9.6291243700e-02     2     4     4     1
-1.6692108770e-01     2     4     4     2
 1.6968700000e-05     2     4     4     3
-6.4606302000e-03     2     4     4     5
 8.0490000000e-06     2     4     5     1
 5.3532600000e-05     2     4     5     2
-3.1500000000e-08     2     4     5     3
-2.2293100000e-05     2     4     5     5
 9.4960834000e-03     2     5     1     1
 2.1285370200e-02     2     5     1     2
 1.7000000000e-06     2     5     1     3
 2.3063000000e-06     2     5     1     4
 7.6078000000e-06     2     5     3     1
 3.9296300000e-05     2     5     3     2
 6.4605536000e-03     2     5     3     3
 2.6700000000e-08     2     5     3     4
 1.0355300000e-05     2     5     4     1
 5.3532600000e-05     2     5     4     2
-4.8000000000e-09     2     5     4     3
 6.4606302000e-03     2     5     4     4
-1.0095109510e-01     2     5     5     1
-1.8698876930e-01     2     5     5     2
 1.6314900000e-05     2     5     5     3
 2.2293100000e-05     2     5     5     4
 2.5379300000e-05     3     1     1     2
-1.5741853890e-01     3     1     1     3
-1.8080000000e-07     3     1     1     4
 4.4261600000e-05     3     1     1     5
 6.0013300000e-05     3     1     2     2
-9.6290778900e-02     3     1     2     3
 7.6000000000e-08     3     1     2     4
 7.6078000000e-06     3     1     2     5
 2.1810000000e-07     3     1     4     2
-7.6000200000e-05     3     1     4     3
 5.5912700000e-05     3     1     4     4
-4.8200000000e-08     3     1     4     5
 1.7000000000e-06     3     1     5     2
 1.9901970700e-02     3     1     5     3
-4.2900000000e-08     3     1     5     4
 6.1619400000e-05     3     1     5     5
-2.5379300000e-05     3     2     1     1
-9.6290778900e-02     3     2     1     3
-1.4210000000e-07     3     2     1     4
 5.9078000000e-06     3     2     1     5
-6.0013300000e-05     3     2     2     1
-1.6691967710e-01     3     2     2     3
-1.6720000000e-07     3     2     2     4
 3.9296300000e-05     3     2     2     5
-2.1810000000e-07     3     2     4     1
 2.3166500000e-05     3     2     4     3
-1.6968700000e-05     3     2     4     4
 3.1500000000e-08     3     2     4     5
-1.7000000000e-06     3     2     5     1
-6.4605536000e-03     3     2     5     3
 4.8000000000e-09     3     2     5     4
-1.6314900000e-05     3     2     5     5
 1.5741853890e-01     3     3     1     1
 9.6290778900e-02     3     3     1     2
 7.6000200000e-05     3     3     1     4
-1.9901970700e-02     3     3     1     5
 9.6290778900e-02     3     3     2     1
 1.6691967710e-01     3     3     2     2
-2.3166500000e-05     3     3     2     4
 6.4605536000e-03     3     3     2     5
 7.6000200000e-05     3     3     4     1
-2.3166500000e-05     3     3     4     2
 1.8100123540e-01     3     3     4     4
-4.6316800000e-05     3     3     4     5
-1.9901970700e-02     3     3     5     1
 6.4605536000e-03     3     3     5     2
-4.6316800000e-05     3     3     5     4
 1.9852886380e-01     3     3     5     5
 1.8080000000e-07     3     4     1     1
 1.4210000000e-07     3     4     1     2
-7.6000200000e-05     3     4     1     3
-5.3000000000e-09     3     4     1     5
-7.6000000000e-08     3     4     2     1
 1.6720000000e-07     3     4     2     2
 2.3166500000e-05     3     4     2     3
 2.6700000000e-08     3     4     2     5
-5.5912700000e-05     3     4     4     1
 1.6968700000e-05     3     4     4     2
-1.8100123540e-01     3     4     4     3
 3.3974000000e-05     3     4     4     5
 4.2900000000e-08     3     4     5     1
-4.8000000000e-09     3     4     5     2
 4.6316800000e-05     3     4     5     3
 1.5050000000e-07     3     4     5     5
-4.4261600000e-05     3     5     1     1
-5.9078000000e-06     3     5     1     2
 1.9901970700e-02     3     5     1     3
 5.3000000000e-09     3     5     1     4
-7.6078000000e-06     3     5     2     1
-3.9296300000e-05     3     5     2     2
-6.4605536000e-03     3     5     2     3
-2.6700000000e-08     3     5     2     4
 4.8200000000e-08     3     5     4     1
-3.1500000000e-08     3     5     4     2
 4.6316800000e-05     3     5     4     3
-3.3974000000e-05     3     5     4     4
-6.1619400000e-05     3     5     5     1
 1.6314900000e-05     3     5     5     2
-1.9852886380e-01     3     5     5     3
-1.5050000000e-07     3     5     5     4
 3.4601700000e-05     4     1     1     2
-1.8080000000e-07     4     1     1     3
-1.5741980230e-01     4     1     1     4
 6.0309200000e-05     4     1     1     5
 8.1625600000e-05     4     1     2     2
-1.4210000000e-07     4     1     2     3
-9.6291243700e-02     4     1     2     4
 1.0355300000e-05     4     1     2     5
-2.1810000000e-07     4     1     3     2
 7.6000200000e-05     4     1     3     3
-5.5912700000e-05     4     1     3     4
 4.8200000000e-08     4     1     3     5
 2.3063000000e-06     4     1     5     2
 5.3000000000e-09     4     1     5     3
 1.9901927200e-02     4     1     5     4
 8.3770500000e-05     4     1     5     5
-3.4601700000e-05     4     2     1     1
 7.6000000000e-08     4     2     1     3
-9.6291243700e-02     4     2     1     4
 8.0490000000e-06     4     2     1     5
-8.1625600000e-05     4     2     2     1
-1.6720000000e-07     4     2     2     3
-1.6692108770e-01     4     2     2     4
 5.3532600000e-05     4     2     2     5
 2.1810000000e-07     4     2     3     1
-2.3166500000e-05     4     2     3     3
 1.6968700000e-05     4     2     3     4
-3.1500000000e-08     4     2     3     5
-2.3063000000e-06     4     2     5     1
-2.6700000000e-08     4     2     5     3
-6.4606302000e-03     4     2     5     4
-2.2293100000e-05     4     2     5     5
 1.8080000000e-07     4     3     1     1
-7.6000000000e-08     4     3     1     2
-5.5912700000e-05     4     3     1     4
 4.2900000000e-08     4     3     1     5
 1.4210000000e-07     4     3     2     1
 1.6720000000e-07     4     3     2     2
 1.6968700000e-05     4     3     2     4
-4.8000000000e-09     4     3     2     5
-7.6000200000e-05     4     3     3     1
 2.3166500000e-05     4     3     3     2
-1.8100123540e-01     4     3     3     4
 4.6316800000e-05     4     3     3     5
-5.3000000000e-09     4     3     5     1
 2.6700000000e-08     4     3     5     2
 3.3974000000e-05     4     3     5     4
 1.5050000000e-07     4     3     5     5
 1.5741980230e-01     4     4     1     1
 9.6291243700e-02     4     4     1     2
 5.5912700000e-05     4     4     1     3
-1.9901927200e-02     4     4     1     5
 9.6291243700e-02     4     4     2     1
 1.6692108770e-01     4     4     2     2
-1.6968700000e-05     4     4     2     3
 6.4606302000e-03     4     4     2     5
 5.5912700000e-05     4     4     3     1
-1.6968700000e-05     4     4     3     2
 1.8100123540e-01     4     4     3     3
-3.3974000000e-05     4     4     3     5
-1.9901927200e-02     4     4     5     1
 6.4606302000e-03     4     4     5     2
-3.3974000000e-05     4     4     5     3
 1.9853020790e-01     4     4     5     5
-6.0309200000e-05     4     5     1     1
-8.0490000000e-06     4     5     1     2
-4.2900000000e-08     4     5     1     3
 1.9901927200e-02     4     5     1     4
-1.0355300000e-05     4     5     2     1
-5.3532600000e-05     4     5     2     2
 4.8000000000e-09     4     5     2     3
-6.4606302000e-03     4     5     2     4
-4.8200000000e-08     4     5     3     1
 3.1500000000e-08     4     5     3     2
-4.6316800000e-05     4     5     3     3
 3.3974000000e-05     4     5     3     4
-8.3770500000e-05     4     5     5     1
 2.2293100000e-05     4     5     5     2
-1.5050000000e-07     4     5     5     3
-1.9853020790e-01     4     5     5     4
-9.4960834000e-03     5     1     1     2
 4.4261600000e-05     5     1     1     3
 6.0309200000e-05     5     1     1     4
-1.7867481290e-01     5     1     1     5
-2.1285370200e-02     5     1     2     2
 5.9078000000e-06     5     1     2     3
 8.0490000000e-06     5     1     2     4
-1.0095109510e-01     5     1     2     5
-1.7000000000e-06     5     1     3     2
-1.9901970700e-02     5     1     3     3
 4.2900000000e-08     5     1     3     4
-6.1619400000e-05     5     1     3     5
-2.3063000000e-06     5     1     4     2
-5.3000000000e-09     5     1     4     3
-1.9901927200e-02     5     1     4     4
-8.3770500000e-05     5     1     4     5
 9.4960834000e-03     5     2     1     1
 7.6078000000e-06     5     2     1     3
 1.0355300000e-05     5     2     1     4
-1.0095109510e-01     5     2     1     5
 2.1285370200e-02     5     2     2     1
 3.9296300000e-05     5     2     2     3
 5.3532600000e-05     5     2     2     4
-1.8698876930e-01     5     2     2     5
 1.7000000000e-06     5     2     3     1
 6.4605536000e-03     5     2     3     3
-4.8000000000e-09     5     2     3     4
 1.6314900000e-05     5     2     3     5
 2.3063000000e-06     5     2     4     1
 2.6700000000e-08     5     2     4     3
 6.4606302000e-03     5     2     4     4
 2.2293100000e-05     5     2     4     5
-4.4261600000e-05     5     3     1     1
-7.6078000000e-06     5     3     1     2
 4.8200000000e-08     5     3     1     4
-6.1619400000e-05     5     3     1     5
-5.9078000000e-06     5     3     2     1
-3.9296300000e-05     5     3     2     2
-3.1500000000e-08     5     3     2     4
 1.6314900000e-05     5     3     2     5
 1.9901970700e-02     5     3     3     1
-6.4605536000e-03     5     3     3     2
 4.6316800000e-05     5     3     3     4
-1.9852886380e-01     5     3     3     5
 5.3000000000e-09     5     3     4     1
-2.6700000000e-08     5     3     4     2
-3.3974000000e-05     5     3     4     4
-1.5050000000e-07     5     3     4     5
-6.0309200000e-05     5     4     1     1
-1.0355300000e-05     5     4     1     2
-4.8200000000e-08     5     4     1     3
-8.3770500000e-05     5     4     1     5
-8.0490000000e-06     5     4     2     1
-5.3532600000e-05     5     4     2     2
 3.1500000000e-08     5     4     2     3
 2.2293100000e-05     5     4     2     5
-4.2900000000e-08     5     4     3     1
 4.8000000000e-09     5     4     3     2
-4.6316800000e-05     5     4     3     3
-1.5050000000e-07     5     4     3     5
 1.9901927200e-02     5     4     4     1
-6.4606302000e-03     5     4     4     2
 3.3974000000e-05     5     4     4     3
-1.9853020790e-01     5     4     4     5
 1.7867481290e-01     5     5     1     1
 1.0095109510e-01     5     5     1     2
 6.1619400000e-05     5     5     1     3
 8.3770500000e-05     5     5     1     4
 1.0095109510e-01     5     5     2     1
 1.8698876930e-01     5     5     2     2
-1.6314900000e-05     5     5     2     3
-2.2293100000e-05     5     5     2     4
 6.1619400000e-05     5     5     3     1
-1.6314900000e-05     5     5     3     2
 1.9852886380e-01     5     5     3     3
 1.5050000000e-07     5     5     3     4
 8.3770500000e-05     5     5     4     1
-2.2293100000e-05     5     5     4     2
 1.5050000000e-07     5     5     4     3
 1.9853020790e-01     5     5     4     4
0.0 0 0 0 0
 1.2745050520e-01     1     1     2     2
-2.5379300000e-05     1     1     2     3
-3.4601700000e-05     1     1     2     4
 9.4960834000e-03     1     1     2     5
-2.5379300000e-05     1     1     3     2
 1.5741853890e-01     1     1     3     3
 1.8080000000e-07     1     1     3     4
-4.4261600000e-05     1     1     3     5
-3.4601700000e-05     1     1     4     2
 1.8080000000e-07     1     1     4     3
 1.5741980230e-01     1     1     4     4
-6.0309200000e-05     1     1     4     5
 9.4960834000e-03     1     1     5     2
-4.4261600000e-05     1     1     5     3
-6.0309200000e-05     1     1     5     4
 1.7867481290e-01     1     1     5     5
-1.2745050520e-01     1     2     2     1
-6.0013300000e-05     1     2     2     3
-8.1625600000e-05     1     2     2     4
 2.1285370200e-02     1     2     2     5
 2.5379300000e-05     1     2     3     1
 9.6290778900e-02     1     2     3     3
 1.4210000000e-07     1     2     3     4
-5.9078000000e-06     1     2     3     5
 3.4601700000e-05     1     2     4     1
-7.6000000000e-08     1     2     4     3
 9.6291243700e-02     1     2     4     4
-8.0490000000e-06     1     2     4     5
-9.4960834000e-03     1     2     5     1
-7.6078000000e-06     1     2     5     3
-1.0355300000e-05     1     2     5     4
 1.0095109510e-01     1     2     5     5
 2.5379300000e-05     1     3     2     1
 6.0013300000e-05     1     3     2     2
 2.1810000000e-07     1     3     2     4
 1.7000000000e-06     1     3     2     5
-1.5741853890e-01     1     3     3     1
-9.6290778900e-02     1     3     3     2
-7.6000200000e-05     1     3     3     4
 1.9901970700e-02     1     3     3     5
-1.8080000000e-07     1     3     4     1
 7.6000000000e-08     1     3     4     2
 5.5912700000e-05     1     3     4     4
-4.2900000000e-08     1     3     4     5
 4.4261600000e-05     1     3     5     1
 7.6078000000e-06     1     3     5     2
-4.8200000000e-08     1     3     5     4
 6.1619400000e-05     1     3     5     5
 3.4601700000e-05     1     4     2     1
 8.1625600000e-05     1     4     2     2
-2.1810000000e-07     1     4     2     3
 2.3063000000e-06     1     4     2     5
-1.8080000000e-07     1     4     3     1
-1.4210000000e-07     1     4     3     2
 7.6000200000e-05     1     4     3     3
 5.3000000000e-09     1     4     3     5
-1.5741980230e-01     1     4     4     1
-9.6291243700e-02     1     4     4     2
-5.5912700000e-05     1     4     4     3
 1.9901927200e-02     1     4     4     5
 6.0309200000e-05     1     4     5     1
 1.0355300000e-05     1     4     5     2
 4.8200000000e-08     1     4     5     3
 8.3770500000e-05     1     4     5     5
-9.4960834000e-03     1     5     2     1
-2.1285370200e-02     1     5     2     2
-1.7000000000e-06     1     5     2     3
-2.3063000000e-06     1     5     2     4
 4.4261600000e-05     1     5     3     1
 5.9078000000e-06     1     5     3     2
-1.9901970700e-02     1     5     3     3
-5.3000000000e-09     1     5     3     4
 6.0309200000e-05     1     5     4     1
 8.0490000000e-06     1     5     4     2
 4.2900000000e-08     1     5     4     3
-1.9901927200e-02     1     5     4     4
-1.7867481290e-01     1     5     5     1
-1.0095109510e-01     1     5     5     2
-6.1619400000e-05     1     5     5     3
-8.3770500000e-05     1     5     5     4
-1.2745050520e-01     2     1     1     2
 2.5379300000e-05     2     1     1     3
 3.4601700000e-05     2     1     1     4
-9.4960834000e-03     2     1     1     5
-6.0013300000e-05     2     1     3     2
 9.6290778900e-02     2     1     3     3
-7.6000000000e-08     2     1     3     4
-7.6078000000e-06     2     1     3     5
-8.1625600000e-05     2     1     4     2
 1.4210000000e-07     2     1     4     3
 9.6291243700e-02     2     1     4     4
-1.0355300000e-05     2     1     4     5
 2.1285370200e-02     2     1     5     2
-5.9078000000e-06     2     1     5     3
-8.0490000000e-06     2     1     5     4
 1.0095109510e-01     2     1     5     5
 1.2745050520e-01     2     2     1     1
 6.0013300000e-05     2     2     1     3
 8.1625600000e-05     2     2     1     4
-2.1285370200e-02     2     2     1     5
 6.0013300000e-05     2     2     3     1
 1.6691967710e-01     2     2     3     3
 1.6720000000e-07     2     2     3     4
-3.9296300000e-05     2     2     3     5
 8.1625600000e-05     2     2     4     1
 1.6720000000e-07     2     2     4     3
 1.6692108770e-01     2     2     4     4
-5.3532600000e-05     2     2     4     5
-2.1285370200e-02     2     2     5     1
-3.9296300000e-05     2     2     5     3
-5.3532600000e-05     2     2     5     4
 1.8698876930e-01     2     2     5     5
-2.5379300000e-05     2     3     1     1
-6.0013300000e-05     2     3     1     2
-2.1810000000e-07     2     3     1     4
-1.7000000000e-06     2     3     1     5
-9.6290778900e-02     2     3     3     1
-1.6691967710e-01     2     3     3     2
 2.3166500000e-05     2     3     3     4
-6.4605536000e-03     2     3     3     5
-1.4210000000e-07     2     3     4     1
-1.6720000000e-07     2     3     4     2
-1.6968700000e-05     2     3     4     4
 4.8000000000e-09     2     3     4     5
 5.9078000000e-06     2     3     5     1
 3.9296300000e-05     2     3     5     2
 3.1500000000e-08     2     3     5     4
-1.6314900000e-05     2     3     5     5
-3.4601700000e-05     2     4     1     1
-8.1625600000e-05     2     4     1     2
 2.1810000000e-07     2     4     1     3
-2.3063000000e-06     2     4     1     5
 7.6000000000e-08     2     4     3     1
-1.6720000000e-07     2     4     3     2
-2.3166500000e-05     2     4     3     3
-2.6700000000e-08     2     4     3     5
-9.6291243700e-02     2     4     4     1
-1.6692108770e-01     2     4     4     2
 1.6968700000e-05     2     4     4     3
-6.4606302000e-03     2     4     4     5
 8.0490000000e-06     2     4     5     1
 5.3532600000e-05     2     4     5     2
-3.1500000000e-08     2     4     5     3
-2.2293100000e-05     2     4     5     5
 9.4960834000e-03     2     5     1     1
 2.1285370200e-02     2     5     1     2
 1.7000000000e-06     2     5     1     3
 2.3063000000e-06     2     5     1     4
 7.6078000000e-06     2     5     3     1
 3.9296300000e-05     2     5     3     2
 6.4605536000e-03     2     5     3     3
 2.6700000000e-08     2     5     3     4
 1.0355300000e-05     2     5     4     1
 5.3532600000e-05     2     5     4     2
-4.8000000000e-09     2     5     4     3
 6.4606302000e-03     2     5     4     4
-1.0095109510e-01     2     5     5     1
-1.8698876930e-01     2     5     5     2
 1.6314900000e-05     2     5     5     3
 2.2293100000e-05     2     5     5     4
 2.5379300000e-05     3     1     1     2
-1.5741853890e-01     3     1     1     3
-1.8080000000e-07     3     1     1     4
 4.4261600000e-05     3     1     1     5
 6.0013300000e-05     3     1     2     2
-9.6290778900e-02     3     1     2     3
 7.6000000000e-08     3     1     2     4
 7.6078000000e-06     3     1     2     5
 2.1810000000e-07     3     1     4     2
-7.6000200000e-05     3     1     4     3
 5.5912700000e-05     3     1     4     4
-4.8200000000e-08     3     1     4     5
 1.7000000000e-06     3     1     5     2
 1.9901970700e-02     3     1     5     3
-4.2900000000e-08     3     1     5     4
 6.1619400000e-05     3     1     5     5
-2.5379300000e-05     3     2     1     1
-9.6290778900e-02     3     2     1     3
-1.4210000000e-07     3     2     1     4
 5.9078000000e-06     3     2     1     5
-6.0013300000e-05     3     2     2     1
-1.6691967710e-01     3     2     2     3
-1.6720000000e-07     3     2     2     4
 3.9296300000e-05     3     2     2     5
-2.1810000000e-07     3     2     4     1
 2.3166500000e-05     3     2     4     3
-1.6968700000e-05     3     2     4     4
 3.1500000000e-08     3     2     4     5
-1.7000000000e-06     3     2     5     1
-6.4605536000e-03     3     2     5     3
 4.8000000000e-09     3     2     5     4
-1.6314900000e-05     3     2     5     5
 1.5741853890e-01     3     3     1     1
 9.6290778900e-02     3     3     1     2
 7.6000200000e-05     3     3     1     4
-1.9901970700e-02     3     3     1     5
 9.6290778900e-02     3     3     2     1
 1.6691967710e-01     3     3     2     2
-2.3166500000e-05     3     3     2     4
 6.4605536000e-03     3     3     2     5
 7.6000200000e-05     3     3     4     1
-2.3166500000e-05     3     3     4     2
 1.8100123540e-01     3     3     4     4
-4.6316800000e-05     3     3     4     5
-1.9901970700e-02     3     3     5     1
 6.4605536000e-03     3     3     5     2
-4.6316800000e-05     3     3     5     4
 1.9852886380e-01     3     3     5     5
 1.8080000000e-07     3     4     1     1
 1.4210000000e-07     3     4     1     2
-7.6000200000e-05     3     4     1     3
-5.3000000000e-09     3     4     1     5
-7.6000000000e-08     3     4     2     1
 1.6720000000e-07     3     4     2     2
 2.3166500000e-05     3     4     2     3
 2.6700000000e-08     3     4     2     5
-5.5912700000e-05     3     4     4     1
 1.6968700000e-05     3     4     4     2
-1.8100123540e-01     3     4     4     3
 3.3974000000e-05     3     4     4     5
 4.2900000000e-08     3     4     5     1
-4.8000000000e-09     3     4     5     2
 4.6316800000e-05     3     4     5     3
 1.5050000000e-07     3     4     5     5
-4.4261600000e-05     3     5     1     1
-5.9078000000e-06     3     5     1     2
 1.9901970700e-02     3     5     1     3
 5.3000000000e-09     3     5     1     4
-7.6078000000e-06     3     5     2     1
-3.9296300000e-05     3     5     2     2
-6.4605536000e-03     3     5     2     3
-2.6700000000e-08     3     5     2     4
 4.8200000000e-08     3     5     4     1
-3.1500000000e-08     3     5     4     2
 4.6316800000e-05     3     5     4     3
-3.3974000000e-05     3     5     4     4
-6.1619400000e-05     3     5     5     1
 1.6314900000e-05     3     5     5     2
-1.9852886380e-01     3     5     5     3
-1.5050000000e-07     3     5     5     4
 3.4601700000e-05     4     1     1     2
-1.8080000000e-07     4     1     1     3
-1.5741980230e-01     4     1     1     4
 6.0309200000e-05     4     1     1     5
 8.1625600000e-05     4     1     2     2
-1.4210000000e-07     4     1     2     3
-9.6291243700e-02     4     1     2     4
 1.0355300000e-05     4     1     2     5
-2.1810000000e-07     4     1     3     2
 7.6000200000e-05     4     1     3     3
-5.5912700000e-05     4     1     3     4
 4.8200000000e-08     4     1     3     5
 2.3063000000e-06     4     1     5     2
 5.3000000000e-09     4     1     5     3
 1.9901927200e-02     4     1     5     4
 8.3770500000e-05     4     1     5     5
-3.4601700000e-05     4     2     1     1
 7.6000000000e-08     4     2     1     3
-9.6291243700e-02     4     2     1     4
 8.0490000000e-06     4     2     1     5
-8.1625600000e-05     4     2     2     1
-1.6720000000e-07     4     2     2     3
-1.6692108770e-01     4     2     2     4
 5.3532600000e-05     4     2     2     5
 2.1810000000e-07     4     2     3     1
-2.3166500000e-05     4     2     3     3
 1.6968700000e-05     4     2     3     4
-3.1500000000e-08     4     2     3     5
-2.3063000000e-06     4     2     5     1
-2.6700000000e-08     4     2     5     3
-6.4606302000e-03     4     2     5     4
-2.2293100000e-05     4     2     5     5
 1.8080000000e-07     4     3     1     1
-7.6000000000e-08     4     3     1     2
-5.5912700000e-05     4     3     1     4
 4.2900000000e-08     4     3     1     5
 1.4210000000e-07     4     3     2     1
 1.6720000000e-07     4     3     2     2
 1.6968700000e-05     4     3     2     4
-4.8000000000e-09     4     3     2     5
-7.6000200000e-05     4     3     3     1
 2.3166500000e-05     4     3     3     2
-1.8100123540e-01     4     3     3     4
 4.6316800000e-05     4     3     3     5
-5.3000000000e-09     4     3     5     1
 2.6700000000e-08     4     3     5     2
 3.3974000000e-05     4     3     5     4
 1.5050000000e-07     4     3     5     5
 1.5741980230e-01     4     4     1     1
 9.6291243700e-02     4     4     1     2
 5.5912700000e-05     4     4     1     3
-1.9901927200e-02     4     4     1     5
 9.6291243700e-02     4     4     2     1
 1.6692108770e-01     4     4     2     2
-1.6968700000e-05     4     4     2     3
 6.4606302000e-03     4     4     2     5
 5.5912700000e-05     4     4     3     1
-1.6968700000e-05     4     4     3     2
 1.8100123540e-01     4     4     3     3
-3.3974000000e-05     4     4     3     5
-1.9901927200e-02     4     4     5     1
 6.4606302000e-03     4     4     5     2
-3.3974000000e-05     4     4     5     3
 1.9853020790e-01     4     4     5     5
-6.0309200000e-05     4     5     1     1
-8.0490000000e-06     4     5     1     2
-4.2900000000e-08     4     5     1     3
 1.9901927200e-02     4     5     1     4
-1.0355300000e-05     4     5     2     1
-5.3532600000e-05     4     5     2     2
 4.8000000000e-09     4     5     2     3
-6.4606302000e-03     4     5     2     4