argument  1 = /home/bylaska/Projects/Work/SNWC/H1Li1-aerosol7-3x3p-1covo-1.9/H1Li1-1.9.nw



============================== echo of input deck ==============================
permanent_dir /home/bylaska/Projects/Work/SNWC/H1Li1-aerosol7-3x3p-1covo-1.9
scratch_dir   /home/bylaska/Projects/Work/SNWC/H1Li1-aerosol7-3x3p-1covo-1.9

#########################  START NWCHEM INPUT DECK - NWJOB 686754 ########################
#
# queue_nwchem_JobId: 61efa5644862ba78ab2efad6
# queue_nwchem_restart_count: 0
#
#nwchem_input  H1Li1-1.9.nw
#nwchem_output H1Li1-1.9.out00
#nwchem_done   H1Li1-1.9.done
#
#mformula_off
#
#transfer_files *.nw *.xyz *.ion_motion *.emotion *.fei *.cif *.hist *.gr *.dat *.meta_gaussians *.cube *.neb_epath *.neb_final_epath
#bad_files md_xs
#
#curdir we31869.emsl.pnl.gov:/media/seagate2/Projects/Duo/COVOs/LiH/3x3_periodic_1covo/R-1.9
#
#permdir H1Li1-aerosol7-3x3p-1covo-1.9
#deletescratch no
#queuesave no
#
#machine aerosol7
#cputime 22:05:00
#ncpus 32
#queue regular
#
title "swnc: e theory=pspw4 xc=pbe formula=LiH charge=0 mult=1"
#machinejob:expert

echo

start pspw_hf_LiH

memory heap 1200 mb stack 1200 mb global 10 mb

charge 0

geometry
Li    0.00000    0.00000   -0.95000
H     0.00000    0.00000    0.95000
end

nwpw
  ### pseudopotential block begin ###
  ### pseudopotential block end   ###
  simulation_cell
     SC 28.345889835
     boundary_conditions periodic
  end

  cutoff 50.0
  mult 1
  xc hf
  lmbfgs
  tolerances 1.0e-9 1.0e-9

  virtual 1
end
set nwpw:cif_filename LiH

#set nwpw:CI_maxit_orb 15
#set nwpw:CI_maxit_linesearch 15
set pspw:HFX_screening_radius 14.0


set nwpw:2qintegrals .true.
set nwpw:3x3_virtual .true.

task pspw energy


### Generating HOMO and LUMO Gaussian cube files ###
nwpw
   dplot
      orbital 1 homo-restricted.cube
      density total density.cube
   end
end
task pspw pspw_dplot

nwpw
   dplot
      vectors  pspw_hf_LiH.emovecs
      orbital 1 lumo1-restricted.cube
   end
end
task pspw pspw_dplot


# queue_name: nwchem :queue_name
# label:nwchem-14.nw NWChem Job #14 curdir=we31869.emsl.pnl.gov:/media/seagate2/Projects/Duo/COVOs/LiH/3x3_periodic_1covo/R-1.9 QWAIT::686753::QWAIT :label

#########################  END   NWCHEM INPUT DECK - NWJOB 686754 ########################
================================================================================


                                         
                                         


             Northwest Computational Chemistry Package (NWChem) 7.0.1
             --------------------------------------------------------


                    Environmental Molecular Sciences Laboratory
                       Pacific Northwest National Laboratory
                                Richland, WA 99352

                              Copyright (c) 1994-2020
                       Pacific Northwest National Laboratory
                            Battelle Memorial Institute

             NWChem is an open-source computational chemistry package
                        distributed under the terms of the
                      Educational Community License (ECL) 2.0
             A copy of the license is included with this distribution
                              in the LICENSE.TXT file

                                  ACKNOWLEDGMENT
                                  --------------

            This software and its documentation were developed at the
            EMSL at Pacific Northwest National Laboratory, a multiprogram
            national laboratory, operated for the U.S. Department of Energy
            by Battelle under Contract Number DE-AC05-76RL01830. Support
            for this work was provided by the Department of Energy Office
            of Biological and Environmental Research, Office of Basic
            Energy Sciences, and the Office of Advanced Scientific Computing.


           Job information
           ---------------

    hostname        = arrow11
    program         = /home/bylaska/bin/nwchem
    date            = Tue Jan 25 00:50:04 2022

    compiled        = Fri_Dec_17_17:26:14_2021
    source          = /home/bylaska/nwchem-releases/nwchem
    nwchem branch   = 7.0.0
    nwchem revision = nwchem_on_git-3098-g62825c7
    ga revision     = 5.8.0
    use scalapack   = F
    input           = /home/bylaska/Projects/Work/SNWC/H1Li1-aerosol7-3x3p-1covo-1.9/H1Li1-1.9.nw
    prefix          = pspw_hf_LiH.
    data base       = /home/bylaska/Projects/Work/SNWC/H1Li1-aerosol7-3x3p-1covo-1.9/pspw_hf_LiH.db
    status          = startup
    nproc           =       32
    time left       =     -1s



           Memory information
           ------------------

    heap     =  157286398 doubles =   1200.0 Mbytes
    stack    =  157286395 doubles =   1200.0 Mbytes
    global   =    1310720 doubles =     10.0 Mbytes (distinct from heap & stack)
    total    =  315883513 doubles =   2410.0 Mbytes
    verify   = yes
    hardfail = no 


           Directory information
           ---------------------

  0 permanent = /home/bylaska/Projects/Work/SNWC/H1Li1-aerosol7-3x3p-1covo-1.9
  0 scratch   = /home/bylaska/Projects/Work/SNWC/H1Li1-aerosol7-3x3p-1covo-1.9




                                NWChem Input Module
                                -------------------


              swnc: e theory=pspw4 xc=pbe formula=LiH charge=0 mult=1
              -------------------------------------------------------

 Scaling coordinates for geometry "geometry" by  1.889725989
 (inverse scale =  0.529177249)

 ORDER OF PRIMARY AXIS IS BEING SET TO 4
 C4V symmetry detected

          ------
          auto-z
          ------
  no constraints, skipping    0.0000000000000000     
  no constraints, skipping    0.0000000000000000     


                             Geometry "geometry" -> ""
                             -------------------------

 Output coordinates in angstroms (scale by  1.889725989 to convert to a.u.)

  No.       Tag          Charge          X              Y              Z
 ---- ---------------- ---------- -------------- -------------- --------------
    1 Li                   3.0000     0.00000000     0.00000000    -0.47500000
    2 H                    1.0000     0.00000000     0.00000000     1.42500000

      Atomic Mass 
      ----------- 

      Li                 7.016000
      H                  1.007825


 Effective nuclear repulsion energy (a.u.)       0.8355430247

            Nuclear Dipole moment (a.u.) 
            ----------------------------
        X                 Y               Z
 ---------------- ---------------- ----------------
     0.0000000000     0.0000000000    -0.0000000000

      Symmetry information
      --------------------

 Group name             C4v       
 Group number             18
 Group order               8
 No. of unique centers     2

      Symmetry unique atoms

     1    2



                                Z-matrix (autoz)
                                -------- 

 Units are Angstrom for bonds and degrees for angles

      Type          Name      I     J     K     L     M      Value
      ----------- --------  ----- ----- ----- ----- ----- ----------
    1 Stretch                  1     2                       1.90000


            XYZ format geometry
            -------------------
     2
 geometry
 Li                    0.00000000     0.00000000    -0.47500000
 H                     0.00000000     0.00000000     1.42500000

          ****************************************************
          *                                                  *
          *               NWPW PSPW Calculation              *
          *                                                  *
          * [ (Grassmann/Stiefel manifold implementation)  ] *
          *                                                  *
          *      [ NorthWest Chemistry implementation ]      *
          *                                                  *
          *            version #5.10   06/12/02              *
          *                                                  *
          *    This code was developed by Eric J. Bylaska,   *
          *    and was based upon algorithms and code        *
          *    developed by the group of Prof. John H. Weare *
          *                                                  *
          ****************************************************
     >>>  JOB STARTED       AT Tue Jan 25 00:50:04 2022  <<<
          ================ input data ========================

 input psi filename:/home/bylaska/Projects/Work/SNWC/H1Li1-aerosol7-3x3p-1covo-1.9/pspw_hf_LiH.movecs

 number of processors used:        32
 processor grid           :  32 x   1
 parallel mapping         :2d-hilbert
 parallel mapping         :  balanced
 number of threads        :         1
 parallel io              :       off

 options:
      boundary conditions  = periodic    (version3)
      electron spin        = restricted
      exchange-correlation = Hartree-Fock
      - HFX relaxed
      - HFX restricted orbitals :    1
      - HFX screened coulomb solver
      - HFX screening radius(pspw:HFX_screening_radius): 0.140E+02
      - HFX screening power (pspw:HFX_screening_power) : 0.800E+01
      - HFX screening type (pspw:HFX_screening_type)   : 0


 elements involved in the cluster:
      1: Li  valence charge:  1.0000  lmax=  1
             comment    : Hamann pseudopotential
             pseudpotential type            :   0
             highest angular component      :   1
             local potential used           :   1
             number of non-local projections:   1
             semicore corrections included  :  1.000 (radius)  0.769 (charge)
             cutoff =   1.869   1.551

      2: H   valence charge:  1.0000  lmax=  1
             comment    : Parameterized (Chem.Phys.Lett., vol 322, page 447) Hamman psp
             pseudpotential type            :   0
             highest angular component      :   1
             local potential used           :   1
             number of non-local projections:   1
             cutoff =   0.800   0.800


 total charge:   0.000

 atomic composition:
     Li  :    1     H   :    1

 number of electrons: spin up=     1 (   1 per task)  down=     1 (   1 per task) (Fourier space)
 number of orbitals : spin up=     1 (   1 per task)  down=     1 (   1 per task) (Fourier space)

 supercell:
      cell_name:  cell_default                                      
      lattice:    a1=<  28.346   0.000   0.000 >
                  a2=<   0.000  28.346   0.000 >
                  a3=<   0.000   0.000  28.346 >
      reciprocal: b1=<   0.222   0.000   0.000 >
                  b2=<   0.000   0.222   0.000 >
                  b3=<   0.000   0.000   0.222 >
      lattice:    a=      28.346 b=     28.346 c=      28.346
                  alpha=  90.000 beta=  90.000 gamma=  90.000
                  omega=     22775.6

      density cutoff=100.000  fft=140x140x140(   544264 waves    17008 per task)
      wavefnc cutoff= 50.000  fft=140x140x140(   192294 waves     6009 per task)
      Ewald summation: cut radius=    9.02  and  1
                       Madelung Wigner-Seitz=    1.76011888 (alpha=    2.83729748 rs=17.58438667)

 technical parameters:
      time step=      5.80     fictitious mass=  400000.0
      tolerance=0.100E-08 (energy)   0.100E-08 (density)
      maximum iterations =      1000 (   10 inner    100 outer )





== Energy Calculation ==


          ============ Grassmann lmbfgs iteration ============
     >>>  ITERATION STARTED AT Tue Jan 25 00:50:26 2022  <<<
    iter.           Energy         DeltaE       DeltaRho 
    ------------------------------------------------------
      10   -0.7395949764E+00   -0.60932E-10    0.12563E-12
  *** tolerance ok. iteration terminated
     >>>  ITERATION ENDED   AT Tue Jan 25 00:50:27 2022  <<<


==  Summary Of Results  ==

 number of electrons: spin up=    1.00000  down=    1.00000 (real space)

 total     energy    :  -0.7395949764E+00 (   -0.36980E+00/ion)
 total orbital energy:  -0.5630264963E+00 (   -0.56303E+00/electron)
 hartree   energy    :   0.7102272525E+00 (    0.71023E+00/electron)
 exc-corr  energy    :   0.0000000000E+00 (    0.00000E+00/electron)
 HF exchange energy  :  -0.4541217382E+00 (   -0.45412E+00/electron)
 ion-ion   energy    :   0.7953703418E-01 (    0.39769E-01/ion)

 kinetic (planewave) :   0.5601556598E+00 (    0.56016E+00/electron)
 V_local (planewave) :  -0.1544140760E+01 (   -0.15441E+01/electron)
 V_nl    (planewave) :  -0.9125242490E-01 (   -0.91252E-01/electron)
 V_Coul  (planewave) :   0.1420454505E+01 (    0.14205E+01/electron)
 V_xc.   (planewave) :   0.0000000000E+00 (    0.00000E+00/electron)
 K.S. HFX energy     :  -0.9082434765E+00 (   -0.90824E+00/electron)
 Virial Coefficient  :  -0.3837124126E+00

 orbital energies:
    -0.2815132E+00 (  -7.660eV)


== Virtual Orbital Calculation ==


 input epsi filename:/home/bylaska/Projects/Work/SNWC/H1Li1-aerosol7-3x3p-1covo-1.9/pspw_hf_LiH.emovecs

 COVOs Mimimization
 ------------------
CI gradient algorithm =         3
maxit_sweeps          =         3
maxit_orb             =       120
maxit_linesearch      =        15
maxerror              = 0.100E-08

     orb,it,eci,eold,eci-eold=                    1                    1 -0.75667958334726881      -0.75667958334726881        0.0000000000000000      F
     orbital   1 current e=  0.380139E+00 error=0.325E-05 (eci= -0.756679583E+00 error=0.000E+00) iterations   1(   0 preconditioned, Ep,Sp= 20.0  200.0)
     orb,it,eci,eold,eci-eold=                    1                    1 -0.75667958339881525      -0.75667958253556045      -8.63254800975710168E-010 F
     orbital   1 current e=  0.380141E+00 error=0.177E-05 (eci= -0.756679583E+00 error=0.863E-09) iterations   1(   0 preconditioned, Ep,Sp= 20.0  200.0)
     orb,it,eci,eold,eci-eold=                    1                    1 -0.75667958339881525      -0.75667958339881525        0.0000000000000000      F
     orbital   1 current e=  0.380143E+00 error=0.285E-05 (eci= -0.756679583E+00 error=0.000E+00) iterations   1(   0 preconditioned, Ep,Sp= 20.0  200.0)

 virtual orbital energies:
     0.3801435E+00 (  10.344eV)


 == Generating One-Electron and Two-Electron Integrals ==

 begin_one_electron_integrals
    1    1        -0.5376187624
    2    1        -0.1280076439
    2    2        -0.1449033068
 end_one_electron_integrals

 begin_two_electron_integrals
    1    1    1    1        0.2561055142
    1    1    2    1        0.1280073519
    1    1    2    2        0.2209175425
    2    1    2    1        0.1139817981
    2    1    2    2        0.1252702582
    2    2    2    2        0.2140625161
 end_two_electron_integrals


 output epsi filename:/home/bylaska/Projects/Work/SNWC/H1Li1-aerosol7-3x3p-1covo-1.9/pspw_hf_LiH.emovecs

 Total PSPW energy     :  -0.7395949764E+00


=== Spin Contamination ===

 <Sexact^2> =    0.0000000000000000     
 <S^2>      =    0.0000000000000000     



== Center of Charge ==

spin up     (   -0.0000,    0.0000,    2.2720 )
spin down   (   -0.0000,    0.0000,    2.2720 )
     total  (   -0.0000,    0.0000,    2.2720 )
ionic       (    0.0000,    0.0000,    0.8976 )


== Molecular Dipole wrt Center of Mass ==

mu   =  (    0.0000,   -0.0000,   -2.7487 ) au
|mu| =     2.7487 au,       6.9862 Debye

 output psi filename:/home/bylaska/Projects/Work/SNWC/H1Li1-aerosol7-3x3p-1covo-1.9/pspw_hf_LiH.movecs

 Writing Crystallographic Information File:/home/bylaska/Projects/Work/SNWC/H1Li1-aerosol7-3x3p-1covo-1.9/LiH.cif
   - cell not shifted (nwpw:cif_shift_cell .false.)


== Timing ==

cputime in seconds
  prologue    :   0.219601E+02
  main loop   :   0.602096E+02
  epilogue    :   0.202679E+00
  total       :   0.823724E+02
  cputime/step:   0.120419E+02       (       5 evalulations,       1 linesearches)


Time spent doing                        total          step       percent
  total time                 :   0.824058E+02  0.164812E+02       100.0 %
  i/o time                   :   0.116021E+01  0.232042E+00         1.4 %
  FFTs                       :   0.356495E+02  0.712990E+01        43.3 %
  dot products               :   0.771540E+00  0.154308E+00         0.9 %
  geodesic                   :   0.136988E-01  0.273976E-02         0.0 %
  ffm_dgemm                  :   0.230599E-02  0.461197E-03         0.0 %
  fmf_dgemm                  :   0.106256E-01  0.212512E-02         0.0 %
  mmm_dgemm                  :   0.469685E-04  0.939369E-05         0.0 %
  m_diagonalize              :   0.105142E-03  0.210283E-04         0.0 %
  local pseudopotentials     :   0.404100E+00  0.808200E-01         0.5 %
  non-local pseudopotentials :   0.279777E+00  0.559555E-01         0.3 %
  hartree potentials         :   0.966745E+00  0.193349E+00         1.2 %
  ion-ion interaction        :   0.201068E+00  0.402137E-01         0.2 %
  structure factors          :   0.275057E+00  0.550114E-01         0.3 %
  phase factors              :   0.259876E-04  0.519753E-05         0.0 %
  masking and packing        :   0.571038E+01  0.114208E+01         6.9 %
  queue fft                  :   0.709946E+01  0.141989E+01         8.6 %
  queue fft (serial)         :   0.195002E+01  0.390004E+00         2.4 %
  queue fft (message passing):   0.490121E+01  0.980241E+00         5.9 %
  HFX potential              :   0.744857E+01  0.148971E+01         9.0 %
  non-local psp FFM          :   0.155045E+00  0.310090E-01         0.2 %
  non-local psp FMF          :   0.860095E-01  0.172019E-01         0.1 %
  non-local psp FFM A        :   0.234974E-01  0.469949E-02         0.0 %
  non-local psp FFM B        :   0.118859E-01  0.237718E-02         0.0 %

== HFX Counters ==
  HFX Evalulations         =   101
  Lin ACE HFX Evalulations =     0


     >>>  JOB COMPLETED     AT Tue Jan 25 00:51:26 2022  <<<

 Task  times  cpu:       81.6s     wall:       82.5s


                                NWChem Input Module
                                -------------------


 >>>> PSPW Parallel Module - pspw_dplot <<<<
          ****************************************************
          *                                                  *
          *                   pspw DPLOT                     *
          *                                                  *
          *    [ Generates density and orbital grids  ]      *
          *                                                  *
          *     [ NorthWest Chemistry implementation ]       *
          *                                                  *
          *            version #1.00   08/22/01              *
          *                                                  *
          ****************************************************

     >>>  JOB STARTED       AT Tue Jan 25 00:51:26 2022  <<<
          ============ PSPW DPLOT input data =================

 input psi filename:/home/bylaska/Projects/Work/SNWC/H1Li1-aerosol7-3x3p-1covo-1.9/pspw_hf_LiH.movecs

 number of processors used: 32
 parallel mapping         :2d hilbert
 parallel mapping         :  balanced

 options:
      boundary conditions   = periodic    (version3)

 number of electrons: spin up=  1  spin down=  1 ( Fourier space)

 ncell              =  0 0 0

 position tolerance = 0.100000E-02

           origin=<   0.000   0.000   0.000 >

 supercell:
      lattice: a1=<  28.346   0.000   0.000 >
               a2=<   0.000  28.346   0.000 >
               a3=<   0.000   0.000  28.346 >
               b1=<   0.222   0.000   0.000 >
               b2=<   0.000   0.222   0.000 >
               b3=<   0.000   0.000   0.222 >
      volume :    22775.6
      density cutoff=100.000  fft=140x140x140(   544264 waves    17008 per task)
      wavefnc cutoff= 50.000  fft=140x140x140(   192294 waves     6009 per task)


    writing orbital                     1  to filename: homo-restricted.cube
    writing total density to filename: density.cube

 Writing Crystallographic Information File:/home/bylaska/Projects/Work/SNWC/H1Li1-aerosol7-3x3p-1covo-1.9/LiH.cif
   - cell not shifted (nwpw:cif_shift_cell .false.)

 -----------------
 cputime in seconds
 total       :    40.761473894119263     

     >>>  JOB COMPLETED     AT Tue Jan 25 00:52:07 2022  <<<

 Task  times  cpu:       40.4s     wall:       40.8s


                                NWChem Input Module
                                -------------------


 >>>> PSPW Parallel Module - pspw_dplot <<<<
          ****************************************************
          *                                                  *
          *                   pspw DPLOT                     *
          *                                                  *
          *    [ Generates density and orbital grids  ]      *
          *                                                  *
          *     [ NorthWest Chemistry implementation ]       *
          *                                                  *
          *            version #1.00   08/22/01              *
          *                                                  *
          ****************************************************

     >>>  JOB STARTED       AT Tue Jan 25 00:52:07 2022  <<<
          ============ PSPW DPLOT input data =================

 input psi filename:/home/bylaska/Projects/Work/SNWC/H1Li1-aerosol7-3x3p-1covo-1.9/pspw_hf_LiH.emovecs

 number of processors used: 32
 parallel mapping         :2d hilbert
 parallel mapping         :  balanced

 options:
      boundary conditions   = periodic    (version3)

 number of electrons: spin up=  1  spin down=  1 ( Fourier space)

 ncell              =  0 0 0

 position tolerance = 0.100000E-02

           origin=<   0.000   0.000   0.000 >

 supercell:
      lattice: a1=<  28.346   0.000   0.000 >
               a2=<   0.000  28.346   0.000 >
               a3=<   0.000   0.000  28.346 >
               b1=<   0.222   0.000   0.000 >
               b2=<   0.000   0.222   0.000 >
               b3=<   0.000   0.000   0.222 >
      volume :    22775.6
      density cutoff=100.000  fft=140x140x140(   544264 waves    17008 per task)
      wavefnc cutoff= 50.000  fft=140x140x140(   192294 waves     6009 per task)


    writing orbital                     1  to filename: lumo1-restricted.cube

 Writing Crystallographic Information File:/home/bylaska/Projects/Work/SNWC/H1Li1-aerosol7-3x3p-1covo-1.9/LiH.cif
   - cell not shifted (nwpw:cif_shift_cell .false.)

 -----------------
 cputime in seconds
 total       :    28.978344917297363     

     >>>  JOB COMPLETED     AT Tue Jan 25 00:52:36 2022  <<<

 Task  times  cpu:       28.8s     wall:       29.0s


                                NWChem Input Module
                                -------------------


 Summary of allocated global arrays
-----------------------------------
  No active global arrays



                         GA Statistics for process    0
                         ------------------------------

       create   destroy   get      put      acc     scatter   gather  read&inc
calls:    0        0        0        0        0        0        0        0     
number of processes/call 0.00e+00 0.00e+00 0.00e+00 0.00e+00 0.00e+00
bytes total:             0.00e+00 0.00e+00 0.00e+00 0.00e+00 0.00e+00 0.00e+00
bytes remote:            0.00e+00 0.00e+00 0.00e+00 0.00e+00 0.00e+00 0.00e+00
Max memory consumed for GA by this process: 0 bytes

MA_summarize_allocated_blocks: starting scan ...
MA_summarize_allocated_blocks: scan completed: 0 heap blocks, 0 stack blocks
MA usage statistics:

	allocation statistics:
					      heap	     stack
					      ----	     -----
	current number of blocks	         0	         0
	maximum number of blocks	       290	        34
	current total bytes		         0	         0
	maximum total bytes		  55125200	  16101880
	maximum total K-bytes		     55126	     16102
	maximum total M-bytes		        56	        17


                                     CITATION
                                     --------
                Please cite the following reference when publishing
                           results obtained with NWChem:

          E. Apra, E. J. Bylaska, W. A. de Jong, N. Govind, K. Kowalski,
       T. P. Straatsma, M. Valiev, H. J. J. van Dam, Y. Alexeev, J. Anchell,
       V. Anisimov, F. W. Aquino, R. Atta-Fynn, J. Autschbach, N. P. Bauman,
     J. C. Becca, D. E. Bernholdt, K. Bhaskaran-Nair, S. Bogatko, P. Borowski,
         J. Boschen, J. Brabec, A. Bruner, E. Cauet, Y. Chen, G. N. Chuev,
      C. J. Cramer, J. Daily, M. J. O. Deegan, T. H. Dunning Jr., M. Dupuis,
   K. G. Dyall, G. I. Fann, S. A. Fischer, A. Fonari, H. Fruchtl, L. Gagliardi,
      J. Garza, N. Gawande, S. Ghosh, K. Glaesemann, A. W. Gotz, J. Hammond,
       V. Helms, E. D. Hermes, K. Hirao, S. Hirata, M. Jacquelin, L. Jensen,
   B. G. Johnson, H. Jonsson, R. A. Kendall, M. Klemm, R. Kobayashi, V. Konkov,
      S. Krishnamoorthy, M. Krishnan, Z. Lin, R. D. Lins, R. J. Littlefield,
      A. J. Logsdail, K. Lopata, W. Ma, A. V. Marenich, J. Martin del Campo,
   D. Mejia-Rodriguez, J. E. Moore, J. M. Mullin, T. Nakajima, D. R. Nascimento,
    J. A. Nichols, P. J. Nichols, J. Nieplocha, A. Otero-de-la-Roza, B. Palmer,
    A. Panyala, T. Pirojsirikul, B. Peng, R. Peverati, J. Pittner, L. Pollack,
   R. M. Richard, P. Sadayappan, G. C. Schatz, W. A. Shelton, D. W. Silverstein,
   D. M. A. Smith, T. A. Soares, D. Song, M. Swart, H. L. Taylor, G. S. Thomas,
            V. Tipparaju, D. G. Truhlar, K. Tsemekhman, T. Van Voorhis,
      A. Vazquez-Mayagoitia, P. Verma, O. Villa, A. Vishnu, K. D. Vogiatzis,
        D. Wang, J. H. Weare, M. J. Williamson, T. L. Windus, K. Wolinski,
        A. T. Wong, Q. Wu, C. Yang, Q. Yu, M. Zacharias, Z. Zhang, Y. Zhao,
                                and R. J. Harrison
                        "NWChem: Past, present, and future
                         J. Chem. Phys. 152, 184102 (2020)
                               doi:10.1063/5.0004997

                                      AUTHORS
                                      -------
     E. Apra, E. J. Bylaska, N. Govind, K. Kowalski, M. Valiev, W. A. de Jong,
      T. P. Straatsma, H. J. J. van Dam, D. Wang, T. L. Windus, N. P. Bauman,
       A. Panyala, J. Hammond, J. Autschbach, K. Bhaskaran-Nair, J. Brabec,
    K. Lopata, S. A. Fischer, S. Krishnamoorthy, M. Jacquelin, W. Ma, M. Klemm,
       O. Villa, Y. Chen, V. Anisimov, F. Aquino, S. Hirata, M. T. Hackler,
           Eric Hermes, L. Jensen, J. E. Moore, J. C. Becca, V. Konjkov,
            D. Mejia-Rodriguez, T. Risthaus, M. Malagoli, A. Marenich,
   A. Otero-de-la-Roza, J. Mullin, P. Nichols, R. Peverati, J. Pittner, Y. Zhao,
        P.-D. Fan, A. Fonari, M. J. Williamson, R. J. Harrison, J. R. Rehr,
      M. Dupuis, D. Silverstein, D. M. A. Smith, J. Nieplocha, V. Tipparaju,
      M. Krishnan, B. E. Van Kuiken, A. Vazquez-Mayagoitia, M. Swart, Q. Wu,
   T. Van Voorhis, A. A. Auer, M. Nooijen, L. D. Crosby, E. Brown, G. Cisneros,
     G. I. Fann, H. Fruchtl, J. Garza, K. Hirao, R. A. Kendall, J. A. Nichols,
       K. Tsemekhman, K. Wolinski, J. Anchell, D. E. Bernholdt, P. Borowski,
       T. Clark, D. Clerc, H. Dachsel, M. J. O. Deegan, K. Dyall, D. Elwood,
      E. Glendening, M. Gutowski, A. C. Hess, J. Jaffe, B. G. Johnson, J. Ju,
        R. Kobayashi, R. Kutteh, Z. Lin, R. Littlefield, X. Long, B. Meng,
      T. Nakajima, S. Niu, L. Pollack, M. Rosing, K. Glaesemann, G. Sandrone,
      M. Stave, H. Taylor, G. Thomas, J. H. van Lenthe, A. T. Wong, Z. Zhang.

 Total times  cpu:      150.9s     wall:      152.3s


# MYMACHINENAME: Eric Bylaska - arrow11.emsl.pnl.gov :MYMACHINENAME