&FCI NORB= 13,NELEC=  2,MS2=0,
 ORBSYM=1,1,1,1,1,1,1,1,1,1,1,1,1
 ISYM=1,
&END
 1.3185606010e-01     1     1     2     2
-1.9133000000e-06     1     1     2     3
-2.9190000000e-06     1     1     2     4
-6.5748713000e-03     1     1     2     5
 9.8664603800e-02     1     1     2     6
-2.7577840000e-04     1     1     2     7
 2.1640000000e-07     1     1     2     8
 2.3834635800e-02     1     1     2     9
 5.3870380000e-04     1     1     2    10
 2.2253240000e-04     1     1     2    11
-6.3784500000e-05     1     1     2    12
 6.0489400000e-05     1     1     2    13
-1.9133000000e-06     1     1     3     2
 1.6382706280e-01     1     1     3     3
 2.8000000000e-09     1     1     3     4
 6.2607000000e-06     1     1     3     5
-2.0675030000e-04     1     1     3     6
-7.4140823300e-02     1     1     3     7
-2.3953904400e-02     1     1     3     8
-2.4804400000e-05     1     1     3     9
 6.2929400000e-04     1     1     3    10
-4.9941640000e-04     1     1     3    11
-3.5632108500e-02     1     1     3    12
-3.5824558000e-03     1     1     3    13
-2.9190000000e-06     1     1     4     2
 2.8000000000e-09     1     1     4     3
 1.6382743570e-01     1     1     4     4
 9.8043000000e-06     1     1     4     5
-7.1520300000e-05     1     1     4     6
-2.3939938000e-02     1     1     4     7
 7.4133450700e-02     1     1     4     8
 3.5483200000e-05     1     1     4     9
 1.5705380000e-04     1     1     4    10
-2.1005600000e-04     1     1     4    11
 3.5675433000e-03     1     1     4    12
-3.5665532300e-02     1     1     4    13
-6.5748713000e-03     1     1     5     2
 6.2607000000e-06     1     1     5     3
 9.8043000000e-06     1     1     5     4
 1.9049301780e-01     1     1     5     5
-1.5300921400e-02     1     1     5     6
 5.5549600000e-05     1     1     5     7
-1.9745400000e-05     1     1     5     8
 8.2070793000e-02     1     1     5     9
 1.8484677000e-03     1     1     5    10
 6.7716370000e-04     1     1     5    11
 5.7635900000e-05     1     1     5    12
-6.5115700000e-05     1     1     5    13
 9.8664603800e-02     1     1     6     2
-2.0675030000e-04     1     1     6     3
-7.1520300000e-05     1     1     6     4
-1.5300921400e-02     1     1     6     5
 2.3586210970e-01     1     1     6     6
-1.6882200000e-05     1     1     6     7
-5.5840000000e-07     1     1     6     8
 3.8381685000e-03     1     1     6     9
 8.1546700000e-05     1     1     6    10
 1.8460400000e-05     1     1     6    11
 5.3122000000e-05     1     1     6    12
-4.0983300000e-05     1     1     6    13
-2.7577840000e-04     1     1     7     2
-7.4140823300e-02     1     1     7     3
-2.3939938000e-02     1     1     7     4
 5.5549600000e-05     1     1     7     5
-1.6882200000e-05     1     1     7     6
 2.3816199450e-01     1     1     7     7
 1.1677000000e-06     1     1     7     8
-4.8386000000e-06     1     1     7     9
-6.3611500000e-05     1     1     7    10
 5.6104600000e-05     1     1     7    11
 3.7520896000e-03     1     1     7    12
 1.6554498000e-03     1     1     7    13
 2.1640000000e-07     1     1     8     2
-2.3953904400e-02     1     1     8     3
 7.4133450700e-02     1     1     8     4
-1.9745400000e-05     1     1     8     5
-5.5840000000e-07     1     1     8     6
 1.1677000000e-06     1     1     8     7
 2.3816098020e-01     1     1     8     8
 1.8595000000e-06     1     1     8     9
-4.1974000000e-06     1     1     8    10
-3.4554000000e-06     1     1     8    11
 1.6429958000e-03     1     1     8    12
-3.7628379000e-03     1     1     8    13
 2.3834635800e-02     1     1     9     2
-2.4804400000e-05     1     1     9     3
 3.5483200000e-05     1     1     9     4
 8.2070793000e-02     1     1     9     5
 3.8381685000e-03     1     1     9     6
-4.8386000000e-06     1     1     9     7
 1.8595000000e-06     1     1     9     8
 2.4653337780e-01     1     1     9     9
 4.6155940000e-04     1     1     9    10
 1.6633780000e-04     1     1     9    11
 3.0002500000e-05     1     1     9    12
-3.3635200000e-05     1     1     9    13
 5.3870380000e-04     1     1    10     2
 6.2929400000e-04     1     1    10     3
 1.5705380000e-04     1     1    10     4
 1.8484677000e-03     1     1    10     5
 8.1546700000e-05     1     1    10     6
-6.3611500000e-05     1     1    10     7
-4.1974000000e-06     1     1    10     8
 4.6155940000e-04     1     1    10     9
 2.1268675330e-01     1     1    10    10
 2.3164000000e-06     1     1    10    11
-1.0709470000e-04     1     1    10    12
-3.8937900000e-05     1     1    10    13
 2.2253240000e-04     1     1    11     2
-4.9941640000e-04     1     1    11     3
-2.1005600000e-04     1     1    11     4
 6.7716370000e-04     1     1    11     5
 1.8460400000e-05     1     1    11     6
 5.6104600000e-05     1     1    11     7
-3.4554000000e-06     1     1    11     8
 1.6633780000e-04     1     1    11     9
 2.3164000000e-06     1     1    11    10
 2.1268073390e-01     1     1    11    11
 8.3976000000e-05     1     1    11    12
 4.6044800000e-05     1     1    11    13
-6.3784500000e-05     1     1    12     2
-3.5632108500e-02     1     1    12     3
 3.5675433000e-03     1     1    12     4
 5.7635900000e-05     1     1    12     5
 5.3122000000e-05     1     1    12     6
 3.7520896000e-03     1     1    12     7
 1.6429958000e-03     1     1    12     8
 3.0002500000e-05     1     1    12     9
-1.0709470000e-04     1     1    12    10
 8.3976000000e-05     1     1    12    11
 2.2418798940e-01     1     1    12    12
-7.2910000000e-07     1     1    12    13
 6.0489400000e-05     1     1    13     2
-3.5824558000e-03     1     1    13     3
-3.5665532300e-02     1     1    13     4
-6.5115700000e-05     1     1    13     5
-4.0983300000e-05     1     1    13     6
 1.6554498000e-03     1     1    13     7
-3.7628379000e-03     1     1    13     8
-3.3635200000e-05     1     1    13     9
-3.8937900000e-05     1     1    13    10
 4.6044800000e-05     1     1    13    11
-7.2910000000e-07     1     1    13    12
 2.2420875360e-01     1     1    13    13
-1.3185606010e-01     1     2     2     1
-4.6161000000e-06     1     2     2     3
-7.0824000000e-06     1     2     2     4
-1.3280177500e-02     1     2     2     5
 6.0409448400e-02     1     2     2     6
-1.6910800000e-04     1     2     2     7
-5.1820000000e-07     1     2     2     8
 1.2020972800e-02     1     2     2     9
 2.6801970000e-04     1     2     2    10
 1.1696380000e-04     1     2     2    11
-5.5827100000e-05     1     2     2    12
 5.4598200000e-05     1     2     2    13
 1.9133000000e-06     1     2     3     1
 9.9685217900e-02     1     2     3     3
-1.2060000000e-07     1     2     3     4
 5.6010000000e-07     1     2     3     5
-1.4304970000e-04     1     2     3     6
-5.2136314900e-02     1     2     3     7
-1.6845223600e-02     1     2     3     8
-1.2545300000e-05     1     2     3     9
 3.1331400000e-04     1     2     3    10
-2.5061700000e-04     1     2     3    11
-1.7976819500e-02     1     2     3    12
-1.8135128000e-03     1     2     3    13
 2.9190000000e-06     1     2     4     1
 1.2080000000e-07     1     2     4     3
 9.9685356600e-02     1     2     4     4
 8.5570000000e-07     1     2     4     5
-4.7191500000e-05     1     2     4     6
-1.6838319800e-02     1     2     4     7
 5.2132695200e-02     1     2     4     8
 2.0636200000e-05     1     2     4     9
 7.8523500000e-05     1     2     4    10
-1.0444280000e-04     1     2     4    11
 1.8014426000e-03     1     2     4    12
-1.8000136600e-02     1     2     4    13
 6.5748713000e-03     1     2     5     1
 8.2440000000e-07     1     2     5     3
 1.1773000000e-06     1     2     5     4
 1.0524465740e-01     1     2     5     5
-5.4664667000e-03     1     2     5     6
 2.6048300000e-05     1     2     5     7
-1.4775700000e-05     1     2     5     8
 5.3397964900e-02     1     2     5     9
 1.1856931000e-03     1     2     5    10
 4.2480410000e-04     1     2     5    11
 7.4475700000e-05     1     2     5    12
-8.2710700000e-05     1     2     5    13
-9.8664603800e-02     1     2     6     1
-3.5325600000e-05     1     2     6     3
-1.1931400000e-05     1     2     6     4
-1.4041319000e-03     1     2     6     5
 1.1374243140e-01     1     2     6     6
-1.4696600000e-05     1     2     6     7
-3.9810000000e-07     1     2     6     8
 1.5842431000e-03     1     2     6     9
 4.0815700000e-05     1     2     6    10
 1.1233900000e-05     1     2     6    11
 2.3222600000e-05     1     2     6    12
-1.2181100000e-05     1     2     6    13
 2.7577840000e-04     1     2     7     1
-1.2667238800e-02     1     2     7     3
-4.0892903000e-03     1     2     7     4
 5.6893000000e-06     1     2     7     5
-1.5228500000e-05     1     2     7     6
 1.1367948160e-01     1     2     7     7
 2.0529000000e-06     1     2     7     8
-1.1273000000e-06     1     2     7     9
-5.8635000000e-05     1     2     7    10
 5.0305100000e-05     1     2     7    11
 3.1463864000e-03     1     2     7    12
 1.3858603000e-03     1     2     7    13
-2.1640000000e-07     1     2     8     1
-4.0907951000e-03     1     2     8     3
 1.2666414200e-02     1     2     8     4
-2.9204000000e-06     1     2     8     5
-1.0000000000e-10     1     2     8     6
 4.0250000000e-07     1     2     8     7
 1.1367866650e-01     1     2     8     8
 1.5706000000e-06     1     2     8     9
-4.1709000000e-06     1     2     8    10
-3.5764000000e-06     1     2     8    11
 1.3779438000e-03     1     2     8    12
-3.1530941000e-03     1     2     8    13
-2.3834635800e-02     1     2     9     1
-1.6618000000e-06     1     2     9     3
 6.3875000000e-06     1     2     9     4
 1.4915061200e-02     1     2     9     5
 2.1889334000e-03     1     2     9     6
-3.1993000000e-06     1     2     9     7
 1.6556000000e-06     1     2     9     8
 1.2159709490e-01     1     2     9     9
 4.2260760000e-04     1     2     9    10
 1.5245780000e-04     1     2     9    11
 2.6754700000e-05     1     2     9    12
-3.0734800000e-05     1     2     9    13
-5.3870380000e-04     1     2    10     1
 6.6946000000e-05     1     2    10     3
 1.7018200000e-05     1     2    10     4
 3.2973450000e-04     1     2    10     5
 5.3527500000e-05     1     2    10     6
-5.7657800000e-05     1     2    10     7
-3.7933000000e-06     1     2    10     8
 4.2172320000e-04     1     2    10     9
 9.5495538100e-02     1     2    10    10
 1.9215000000e-06     1     2    10    11
-8.9543200000e-05     1     2    10    12
-3.2397100000e-05     1     2    10    13
-2.2253240000e-04     1     2    11     1
-5.3791700000e-05     1     2    11     3
-2.2266300000e-05     1     2    11     4
 1.1875870000e-04     1     2    11     5
 1.3731000000e-05     1     2    11     6
 4.9445400000e-05     1     2    11     7
-3.4291000000e-06     1     2    11     8
 1.5328620000e-04     1     2    11     9
 1.9504000000e-06     1     2    11    10
 9.5485363200e-02     1     2    11    11
 7.0432000000e-05     1     2    11    12
 3.8585700000e-05     1     2    11    13
 6.3784500000e-05     1     2    12     1
-3.8692106000e-03     1     2    12     3
 3.8750190000e-04     1     2    12     4
 1.8712200000e-05     1     2    12     5
 3.3022600000e-05     1     2    12     6
 3.1065995000e-03     1     2    12     7
 1.3602449000e-03     1     2    12     8
 2.2366600000e-05     1     2    12     9
-9.0446000000e-05     1     2    12    10
 7.0745800000e-05     1     2    12    11
 1.0355168390e-01     1     2    12    12
-3.1420000000e-07     1     2    12    13
-6.0489400000e-05     1     2    13     1
-3.9039100000e-04     1     2    13     3
-3.8746593000e-03     1     2    13     4
-2.1840400000e-05     1     2    13     5
-2.2606200000e-05     1     2    13     6
 1.3676905000e-03     1     2    13     7
-3.1130338000e-03     1     2    13     8
-2.5938300000e-05     1     2    13     9
-3.2523600000e-05     1     2    13    10
 3.8845500000e-05     1     2    13    11
-5.6910000000e-07     1     2    13    12
 1.0356448130e-01     1     2    13    13
 1.9133000000e-06     1     3     2     1
 4.6161000000e-06     1     3     2     2
-2.4140000000e-07     1     3     2     4
-2.6430000000e-07     1     3     2     5
-1.0772410000e-04     1     3     2     6
-3.9469076100e-02     1     3     2     7
-1.2754428500e-02     1     3     2     8
-1.0883500000e-05     1     3     2     9
 2.4636800000e-04     1     3     2    10
-1.9682530000e-04     1     3     2    11
-1.4107608900e-02     1     3     2    12
-1.4231218000e-03     1     3     2    13
-1.6382706280e-01     1     3     3     1
-9.9685217900e-02     1     3     3     2
-6.4549000000e-06     1     3     3     4
-1.1916581500e-02     1     3     3     5
-1.8289734200e-02     1     3     3     6
 6.6393100000e-05     1     3     3     7
 2.1203000000e-06     1     3     3     8
-1.0210372400e-02     1     3     3     9
-3.7756292800e-02     1     3     3    10
-1.4788604200e-02     1     3     3    11
-3.7774290000e-04     1     3     3    12
-2.2469860000e-04     1     3     3    13
-2.8000000000e-09     1     3     4     1
-1.2080000000e-07     1     3     4     2
 4.1942000000e-06     1     3     4     4
-1.4700000000e-08     1     3     4     5
 1.2827000000e-06     1     3     4     6
 1.0735000000e-05     1     3     4     7
-9.1380000000e-07     1     3     4     8
-7.9982000000e-06     1     3     4     9
 1.4898247700e-02     1     3     4    10
-3.8107618800e-02     1     3     4    11
 7.3467610000e-04     1     3     4    12
 3.5182060000e-04     1     3     4    13
-6.2607000000e-06     1     3     5     1
-8.2440000000e-07     1     3     5     2
-3.0600000000e-08     1     3     5     4
 5.1510000000e-06     1     3     5     5
 3.4341600000e-05     1     3     5     6
 1.3433168100e-02     1     3     5     7
 4.3442421000e-03     1     3     5     8
-2.5794600000e-05     1     3     5     9
 7.2454970000e-04     1     3     5    10
-5.3167390000e-04     1     3     5    11
-4.0917541800e-02     1     3     5    12
-4.0765572000e-03     1     3     5    13
 2.0675030000e-04     1     3     6     1
 3.5325600000e-05     1     3     6     2
 1.5000000000e-07     1     3     6     4
-1.3800000000e-06     1     3     6     5
 4.1472400000e-05     1     3     6     6
-6.7871718000e-03     1     3     6     7
-2.1952882000e-03     1     3     6     8
-5.1605000000e-06     1     3     6     9
 6.3736000000e-05     1     3     6    10
-2.4877100000e-05     1     3     6    11
-3.0259432000e-03     1     3     6    12
-3.0611910000e-04     1     3     6    13
 7.4140823300e-02     1     3     7     1
 1.2667238800e-02     1     3     7     2
 3.5100000000e-08     1     3     7     4
-5.4933740000e-04     1     3     7     5
 1.7692584200e-02     1     3     7     6
-2.6530700000e-05     1     3     7     7
 4.2348000000e-06     1     3     7     8
-1.7675876000e-03     1     3     7     9
 5.6394338000e-03     1     3     7    10
 4.3544893000e-03     1     3     7    11
-5.4084000000e-06     1     3     7    12
 7.6462300000e-05     1     3     7    13
 2.3953904400e-02     1     3     8     1
 4.0907951000e-03     1     3     8     2
 5.8500000000e-08     1     3     8     4
-1.7668450000e-04     1     3     8     5
 5.7158173000e-03     1     3     8     6
-1.6389200000e-05     1     3     8     7
 4.5980000000e-06     1     3     8     8
-5.7470060000e-04     1     3     8     9
 4.4136249000e-03     1     3     8    10
-5.0581401000e-03     1     3     8    11
 1.4591830000e-04     1     3     8    12
 9.4249700000e-05     1     3     8    13
 2.4804400000e-05     1     3     9     1
 1.6618000000e-06     1     3     9     2
 2.6600000000e-08     1     3     9     4
-1.5299000000e-06     1     3     9     5
-8.6086000000e-06     1     3     9     6
-4.3302652000e-03     1     3     9     7
-1.3986188000e-03     1     3     9     8
 7.8764000000e-06     1     3     9     9
 4.7617300000e-05     1     3     9    10
-3.4689700000e-05     1     3     9    11
-3.6491982000e-03     1     3     9    12
-3.6659830000e-04     1     3     9    13
-6.2929400000e-04     1     3    10     1
-6.6946000000e-05     1     3    10     2
-1.5220000000e-07     1     3    10     4
 1.8761500000e-05     1     3    10     5
-6.9760100000e-05     1     3    10     6
-5.5632961000e-03     1     3    10     7
-4.9486343000e-03     1     3    10     8
-2.2738090000e-04     1     3    10     9
-1.3951000000e-06     1     3    10    10
-4.9004500000e-05     1     3    10    11
-2.3321616000e-03     1     3    10    12
 8.1281560000e-04     1     3    10    13
 4.9941640000e-04     1     3    11     1
 5.3791700000e-05     1     3    11     2
 7.6199999990e-08     1     3    11     4
-1.5078600000e-05     1     3    11     5
 3.3173800000e-05     1     3    11     6
-5.0257113000e-03     1     3    11     7
 6.6476003000e-03     1     3    11     8
 1.7018870000e-04     1     3    11     9
 5.5571600000e-05     1     3    11    10
 4.0594000000e-06     1     3    11    11
-6.1034680000e-04     1     3    11    12
-2.7373571000e-03     1     3    11    13
 3.5632108500e-02     1     3    12     1
 3.8692106000e-03     1     3    12     2
-1.2029000000e-06     1     3    12     4
-1.2172412000e-03     1     3    12     5
 3.0053362000e-03     1     3    12     6
-5.7228700000e-05     1     3    12     7
-1.5826300000e-04     1     3    12     8
 1.1814206400e-02     1     3    12     9
 2.5085607000e-03     1     3    12    10
 7.5356620000e-04     1     3    12    11
 6.4548900000e-05     1     3    12    12
 2.6586800000e-05     1     3    12    13
 3.5824558000e-03     1     3    13     1
 3.9039100000e-04     1     3    13     2
 5.8210000000e-07     1     3    13     4
-1.2256140000e-04     1     3    13     5
 3.0522870000e-04     1     3    13     6
 2.2914800000e-05     1     3    13     7
-6.0404400000e-05     1     3    13     8
 1.1778852000e-03     1     3    13     9
-4.9321550000e-04     1     3    13    10
 1.9862944000e-03     1     3    13    11
-7.7217500000e-05     1     3    13    12
 2.5450000000e-07     1     3    13    13
 2.9190000000e-06     1     4     2     1
 7.0824000000e-06     1     4     2     2
 2.4140000000e-07     1     4     2     3
-3.2160000000e-07     1     4     2     5
-3.5260100000e-05     1     4     2     6
-1.2749029500e-02     1     4     2     7
 3.9466281000e-02     1     4     2     8
 1.4248700000e-05     1     4     2     9
 6.1505300000e-05     1     4     2    10
-8.2176500000e-05     1     4     2    11
 1.4139407000e-03     1     4     2    12
-1.4125477300e-02     1     4     2    13
-2.8000000000e-09     1     4     3     1
 1.2060000000e-07     1     4     3     2
 6.4549000000e-06     1     4     3     3
 1.5900000000e-08     1     4     3     5
 1.1327000000e-06     1     4     3     6
 1.0699900000e-05     1     4     3     7
-9.7230000000e-07     1     4     3     8
-8.0248000000e-06     1     4     3     9
 1.4898399900e-02     1     4     3    10
-3.8107695000e-02     1     4     3    11
 7.3587900000e-04     1     4     3    12
 3.5123850000e-04     1     4     3    13
-1.6382743570e-01     1     4     4     1
-9.9685356600e-02     1     4     4     2
-4.1942000000e-06     1     4     4     3
-1.1916556400e-02     1     4     4     5
-1.8290255700e-02     1     4     4     6
 5.5948700000e-05     1     4     4     7
-1.7796100000e-05     1     4     4     8
-1.2157395600e-02     1     4     4     9
 3.7284489900e-02     1     4     4    10
 1.4558091800e-02     1     4     4    11
 5.5945000000e-04     1     4     4    12
-2.0235800000e-05     1     4     4    13
-9.8043000000e-06     1     4     5     1
-1.1773000000e-06     1     4     5     2
 3.0600000000e-08     1     4     5     3
 8.0978000000e-06     1     4     5     5
 2.7971000000e-06     1     4     5     6
 4.3597274000e-03     1     4     5     7
-1.3441763500e-02     1     4     5     8
 3.2390600000e-05     1     4     5     9
 1.5139370000e-04     1     4     5    10
-2.3492910000e-04     1     4     5    11
 4.0858782000e-03     1     4     5    12
-4.0921164500e-02     1     4     5    13
 7.1520300000e-05     1     4     6     1
 1.1931400000e-05     1     4     6     2
-1.5000000000e-07     1     4     6     3
-2.1390000000e-07     1     4     6     5
 1.8192700000e-05     1     4     6     6
-2.1940131000e-03     1     4     6     7
 6.7868405000e-03     1     4     6     8
 7.8441000000e-06     1     4     6     9
-1.1969000000e-06     1     4     6    10
-1.0765000000e-06     1     4     6    11
 3.0284750000e-04     1     4     6    12
-3.0322056000e-03     1     4     6    13
 2.3939938000e-02     1     4     7     1
 4.0892903000e-03     1     4     7     2
-3.5100000000e-08     1     4     7     3
-1.7629760000e-04     1     4     7     5
 5.7141739000e-03     1     4     7     6
-1.9315000000e-06     1     4     7     7
-1.7506700000e-05     1     4     7     8
-4.2522760000e-04     1     4     7     9
-4.4439195000e-03     1     4     7    10
 5.0584340000e-03     1     4     7    11
-1.8477750000e-04     1     4     7    12
-4.0248200000e-05     1     4     7    13
-7.4133450700e-02     1     4     8     1
-1.2666414200e-02     1     4     8     2
-5.8500000000e-08     1     4     8     3
 5.4911870000e-04     1     4     8     5
-1.7691949100e-02     1     4     8     6
 4.9951800000e-05     1     4     8     7
 8.9771000000e-06     1     4     8     8
 1.3144074000e-03     1     4     8     9
 5.7347057000e-03     1     4     8    10
 4.3567010000e-03     1     4     8    11
 1.1807660000e-04     1     4     8    12
-7.2447800000e-05     1     4     8    13
-3.5483200000e-05     1     4     9     1
-6.3875000000e-06     1     4     9     2
-2.6600000000e-08     1     4     9     3
-1.0300000000e-07     1     4     9     5
-6.2214000000e-06     1     4     9     6
-1.4728375000e-03     1     4     9     7
 4.5670123000e-03     1     4     9     8
 2.2468000000e-06     1     4     9     9
 1.1003200000e-05     1     4     9    10
-1.2785100000e-05     1     4     9    11
 3.7209220000e-04     1     4     9    12
-3.7282790000e-03     1     4     9    13
-1.5705380000e-04     1     4    10     1
-1.7018200000e-05     1     4    10     2
 1.5220000000e-07     1     4    10     3
 4.8827000000e-06     1     4    10     5
-1.9010000000e-06     1     4    10     6
 4.8795516000e-03     1     4    10     7
-5.3497295000e-03     1     4    10     8
-5.1871000000e-05     1     4    10     9
 5.3277000000e-06     1     4    10    10
-7.4602000000e-06     1     4    10    11
 8.3280430000e-04     1     4    10    12
 2.1435430000e-03     1     4    10    13
 2.1005600000e-04     1     4    11     1
 2.2266300000e-05     1     4    11     2
-7.6199999990e-08     1     4    11     3
-6.4107000000e-06     1     4    11     5
 1.3950000000e-06     1     4    11     6
-6.6715658000e-03     1     4    11     7
-4.9547471000e-03     1     4    11     8
 7.1297500000e-05     1     4    11     9
 1.6202400000e-05     1     4    11    10
 9.4050000000e-07     1     4    11    11
-2.7239160000e-03     1     4    11    12
 5.2074790000e-04     1     4    11    13
-3.5675433000e-03     1     4    12     1
-3.8750190000e-04     1     4    12     2
 1.2029000000e-06     1     4    12     3
 1.2265170000e-04     1     4    12     5
-3.0161830000e-04     1     4    12     6
 1.4371050000e-04     1     4    12     7
-3.9995000000e-06     1     4    12     8
-1.1950611000e-03     1     4    12     9
-5.4374450000e-04     1     4    12    10
 1.9682499000e-03     1     4    12    11
 4.2805000000e-06     1     4    12    12
 4.1549300000e-05     1     4    12    13
 3.5665532300e-02     1     4    13     1
 3.8746593000e-03     1     4    13     2
-5.8210000000e-07     1     4    13     3
-1.2179183000e-03     1     4    13     5
 3.0106324000e-03     1     4    13     6
 6.3277400000e-05     1     4    13     7
-1.3699400000e-05     1     4    13     8
 1.1972654800e-02     1     4    13     9
-2.0235987000e-03     1     4    13    10
-5.8428120000e-04     1     4    13    11
 1.6673400000e-05     1     4    13    12
-4.6763000000e-05     1     4    13    13
 6.5748713000e-03     1     5     2     1
 1.3280177500e-02     1     5     2     2
 2.6430000000e-07     1     5     2     3
 3.2160000000e-07     1     5     2     4
-4.0623348000e-03     1     5     2     6
 2.0359000000e-05     1     5     2     7
-1.1855300000e-05     1     5     2     8
 3.8482903700e-02     1     5     2     9
 8.5595860000e-04     1     5     2    10
 3.0604540000e-04     1     5     2    11
 5.5763500000e-05     1     5     2    12
-6.0870300000e-05     1     5     2    13
-6.2607000000e-06     1     5     3     1
-5.6010000000e-07     1     5     3     2
 1.1916581500e-02     1     5     3     3
-1.5900000000e-08     1     5     3     4
 3.5721600000e-05     1     5     3     6
 1.3982505500e-02     1     5     3     7
 4.5209266000e-03     1     5     3     8
-2.4264700000e-05     1     5     3     9
 7.0578820000e-04     1     5     3    10
-5.1659530000e-04     1     5     3    11
-3.9700300600e-02     1     5     3    12
-3.9539958000e-03     1     5     3    13
-9.8043000000e-06     1     5     4     1
-8.5570000000e-07     1     5     4     2
 1.4700000000e-08     1     5     4     3
 1.1916556400e-02     1     5     4     4
 3.0110000000e-06     1     5     4     6
 4.5360250000e-03     1     5     4     7
-1.3990882200e-02     1     5     4     8
 3.2493600000e-05     1     5     4     9
 1.4651100000e-04     1     5     4    10
-2.2851840000e-04     1     5     4    11
 3.9632265000e-03     1     5     4    12
-3.9703246200e-02     1     5     4    13
-1.9049301780e-01     1     5     5     1
-1.0524465740e-01     1     5     5     2
-5.1510000000e-06     1     5     5     3
-8.0978000000e-06     1     5     5     4
-3.5663021200e-02     1     5     5     6
 7.9111400000e-05     1     5     5     7
 1.7094100000e-05     1     5     5     8
 1.7218113600e-02     1     5     5     9
 3.6835420000e-04     1     5     5    10
 2.0496620000e-04     1     5     5    11
-2.4707610000e-04     1     5     5    12
 3.0798230000e-04     1     5     5    13
 1.5300921400e-02     1     5     6     1
 1.4041319000e-03     1     5     6     2
 1.3800000000e-06     1     5     6     3
 2.1390000000e-07     1     5     6     4
 1.1212541700e-02     1     5     6     6
 8.0578000000e-06     1     5     6     7
-1.5360000000e-07     1     5     6     8
 1.9797322300e-02     1     5     6     9
 3.7544150000e-04     1     5     6    10
 1.3381210000e-04     1     5     6    11
 5.9497300000e-05     1     5     6    12
-2.4002600000e-05     1     5     6    13
-5.5549600000e-05     1     5     7     1
-5.6893000000e-06     1     5     7     2
 5.4933740000e-04     1     5     7     3
 1.7629760000e-04     1     5     7     4
 3.7027000000e-06     1     5     7     6
 1.4176244000e-02     1     5     7     7
-3.8347000000e-06     1     5     7     8
-4.1077700000e-05     1     5     7     9
-1.7617370000e-04     1     5     7    10
 1.3949790000e-04     1     5     7    11
 9.9852262000e-03     1     5     7    12
 4.3639458000e-03     1     5     7    13
 1.9745400000e-05     1     5     8     1
 2.9204000000e-06     1     5     8     2
 1.7668450000e-04     1     5     8     3
-5.4911870000e-04     1     5     8     4
 5.2290000000e-06     1     5     8     6
 3.7155000000e-06     1     5     8     7
 1.4176377600e-02     1     5     8     8
 5.2989000000e-06     1     5     8     9
-1.6639900000e-05     1     5     8    10
-1.4011300000e-05     1     5     8    11
 4.3635355000e-03     1     5     8    12
-9.9907409000e-03     1     5     8    13
-8.2070793000e-02     1     5     9     1
-1.4915061200e-02     1     5     9     2
 1.5299000000e-06     1     5     9     3
 1.0300000000e-07     1     5     9     4
-8.7439062000e-03     1     5     9     6
 2.6570300000e-05     1     5     9     7
-5.9740000000e-06     1     5     9     8
 1.1296036600e-02     1     5     9     9
-1.1390070000e-04     1     5     9    10
-3.1817600000e-05     1     5     9    11
-4.9539600000e-05     1     5     9    12
 5.6932100000e-05     1     5     9    13
-1.8484677000e-03     1     5    10     1
-3.2973450000e-04     1     5    10     2
-1.8761500000e-05     1     5    10     3
-4.8827000000e-06     1     5    10     4
-2.4278260000e-04     1     5    10     6
 1.3003060000e-04     1     5    10     7
 1.4657700000e-05     1     5    10     8
-1.0578600000e-04     1     5    10     9
 1.5241331500e-02     1     5    10    10
-1.9210000000e-07     1     5    10    11
 3.0606600000e-05     1     5    10    12
 8.7608000000e-06     1     5    10    13
-6.7716370000e-04     1     5    11     1
-1.1875870000e-04     1     5    11     2
 1.5078600000e-05     1     5    11     3
 6.4107000000e-06     1     5    11     4
-8.9111300000e-05     1     5    11     6
-1.0112510000e-04     1     5    11     7
 1.0484100000e-05     1     5    11     8
-4.4974600000e-05     1     5    11     9
-6.3030000000e-07     1     5    11    10
 1.5243793400e-02     1     5    11    11
-2.3571600000e-05     1     5    11    12
-1.3636800000e-05     1     5    11    13
-5.7635900000e-05     1     5    12     1
-1.8712200000e-05     1     5    12     2
 1.2172412000e-03     1     5    12     3
-1.2265170000e-04     1     5    12     4
-2.1054300000e-05     1     5    12     6
-5.8445582000e-03     1     5    12     7
-2.5578191000e-03     1     5    12     8
 1.3323000000e-05     1     5    12     9
 3.1222100000e-05     1     5    12    10
-2.7979300000e-05     1     5    12    11
 1.3640877300e-02     1     5    12    12
-3.1747000000e-06     1     5    12    13
 6.5115700000e-05     1     5    13     1
 2.1840400000e-05     1     5    13     2
 1.2256140000e-04     1     5    13     3
 1.2179183000e-03     1     5    13     4