&FCI NORB= 13,NELEC=  2,MS2=0,
 ORBSYM=1,1,1,1,1,1,1,1,1,1,1,1,1
 ISYM=1,
&END
 6.7820108300e-02     1     1     2     2
-4.4771211000e-03     1     1     2     3
-4.0453100000e-05     1     1     2     4
 2.2057900000e-05     1     1     2     5
-7.1527983100e-02     1     1     2     6
-1.2142640000e-04     1     1     2     7
-3.9254900000e-05     1     1     2     8
-2.8210129200e-02     1     1     2     9
-2.1875670000e-04     1     1     2    10
 1.9690170000e-04     1     1     2    11
 6.2549800000e-05     1     1     2    12
-5.1423367000e-03     1     1     2    13
-4.4771211000e-03     1     1     3     2
 1.1187447180e-01     1     1     3     3
-1.9460000000e-06     1     1     3     4
 1.0435000000e-06     1     1     3     5
 4.2497945000e-03     1     1     3     6
 3.7874230000e-04     1     1     3     7
-2.9380660000e-04     1     1     3     8
-5.9876389900e-02     1     1     3     9
-2.0249679000e-03     1     1     3    10
 1.3434619000e-03     1     1     3    11
 4.3880940000e-04     1     1     3    12
-5.0561885500e-02     1     1     3    13
-4.0453100000e-05     1     1     4     2
-1.9460000000e-06     1     1     4     3
 1.1326235120e-01     1     1     4     4
 8.5000000000e-09     1     1     4     5
 3.8074200000e-05     1     1     4     6
-5.9660028900e-02     1     1     4     7
-9.9335929000e-03     1     1     4     8
-2.8626650000e-04     1     1     4     9
-7.1671749000e-03     1     1     4    10
 4.3079952600e-02     1     1     4    11
-7.6985374000e-03     1     1     4    12
 1.1639130000e-03     1     1     4    13
 2.2057900000e-05     1     1     5     2
 1.0435000000e-06     1     1     5     3
 8.5000000000e-09     1     1     5     4
 1.1326311540e-01     1     1     5     5
-1.9931900000e-05     1     1     5     6
 9.9308388000e-03     1     1     5     7
-5.9659039900e-02     1     1     5     8
 3.4535290000e-04     1     1     5     9
-8.0392360000e-04     1     1     5    10
-7.9531286000e-03     1     1     5    11
-4.3523491700e-02     1     1     5    12
-6.0968100000e-04     1     1     5    13
-7.1527983100e-02     1     1     6     2
 4.2497945000e-03     1     1     6     3
 3.8074200000e-05     1     1     6     4
-1.9931900000e-05     1     1     6     5
 1.5672012870e-01     1     1     6     6
-4.1075900000e-05     1     1     6     7
-9.5444000000e-06     1     1     6     8
-8.0986677000e-03     1     1     6     9
-2.0448050000e-04     1     1     6    10
 2.9846530000e-04     1     1     6    11
 1.0917500000e-04     1     1     6    12
-4.0028317000e-03     1     1     6    13
-1.2142640000e-04     1     1     7     2
 3.7874230000e-04     1     1     7     3
-5.9660028900e-02     1     1     7     4
 9.9308388000e-03     1     1     7     5
-4.1075900000e-05     1     1     7     6
 1.4889366060e-01     1     1     7     7
 2.0910000000e-07     1     1     7     8
 1.3132000000e-06     1     1     7     9
 2.0448408000e-03     1     1     7    10
-1.3786333700e-02     1     1     7    11
 1.3750580000e-04     1     1     7    12
-5.1542900000e-04     1     1     7    13
-3.9254900000e-05     1     1     8     2
-2.9380660000e-04     1     1     8     3
-9.9335929000e-03     1     1     8     4
-5.9659039900e-02     1     1     8     5
-9.5444000000e-06     1     1     8     6
 2.0910000000e-07     1     1     8     7
 1.4889134320e-01     1     1     8     8
 7.1094000000e-06     1     1     8     9
 5.8691540000e-04     1     1     8    10
 2.3780130000e-04     1     1     8    11
 1.3928535600e-02     1     1     8    12
 2.1183440000e-04     1     1     8    13
-2.8210129200e-02     1     1     9     2
-5.9876389900e-02     1     1     9     3
-2.8626650000e-04     1     1     9     4
 3.4535290000e-04     1     1     9     5
-8.0986677000e-03     1     1     9     6
 1.3132000000e-06     1     1     9     7
 7.1094000000e-06     1     1     9     8
 1.5928597240e-01     1     1     9     9
 5.3938750000e-04     1     1     9    10
-4.6187600000e-04     1     1     9    11
-1.9252540000e-04     1     1     9    12
 1.4391293000e-02     1     1     9    13
-2.1875670000e-04     1     1    10     2
-2.0249679000e-03     1     1    10     3
-7.1671749000e-03     1     1    10     4
-8.0392360000e-04     1     1    10     5
-2.0448050000e-04     1     1    10     6
 2.0448408000e-03     1     1    10     7
 5.8691540000e-04     1     1    10     8
 5.3938750000e-04     1     1    10     9
 1.5348705590e-01     1     1    10    10
-1.2798885000e-03     1     1    10    11
 3.7646970000e-04     1     1    10    12
 3.6331140000e-04     1     1    10    13
 1.9690170000e-04     1     1    11     2
 1.3434619000e-03     1     1    11     3
 4.3079952600e-02     1     1    11     4
-7.9531286000e-03     1     1    11     5
 2.9846530000e-04     1     1    11     6
-1.3786333700e-02     1     1    11     7
 2.3780130000e-04     1     1    11     8
-4.6187600000e-04     1     1    11     9
-1.2798885000e-03     1     1    11    10
 1.6661183600e-01     1     1    11    11
 6.4317800000e-05     1     1    11    12
 7.4230000000e-07     1     1    11    13
 6.2549800000e-05     1     1    12     2
 4.3880940000e-04     1     1    12     3
-7.6985374000e-03     1     1    12     4
-4.3523491700e-02     1     1    12     5
 1.0917500000e-04     1     1    12     6
 1.3750580000e-04     1     1    12     7
 1.3928535600e-02     1     1    12     8
-1.9252540000e-04     1     1    12     9
 3.7646970000e-04     1     1    12    10
 6.4317800000e-05     1     1    12    11
 1.6684956560e-01     1     1    12    12
 4.9330000000e-07     1     1    12    13
-5.1423367000e-03     1     1    13     2
-5.0561885500e-02     1     1    13     3
 1.1639130000e-03     1     1    13     4
-6.0968100000e-04     1     1    13     5
-4.0028317000e-03     1     1    13     6
-5.1542900000e-04     1     1    13     7
 2.1183440000e-04     1     1    13     8
 1.4391293000e-02     1     1    13     9
 3.6331140000e-04     1     1    13    10
 7.4230000000e-07     1     1    13    11
 4.9330000000e-07     1     1    13    12
 1.7023705590e-01     1     1    13    13
-6.7820108300e-02     1     2     2     1
 3.8746553000e-02     1     2     2     3
 3.7585620000e-04     1     2     2     4
-2.0218390000e-04     1     2     2     5
 5.1955911400e-02     1     2     2     6
-7.6120000000e-07     1     2     2     7
-2.7850000000e-07     1     2     2     8
-3.1163580000e-04     1     2     2     9
-3.0629300000e-05     1     2     2    10
 3.7946700000e-05     1     2     2    11
 1.3285700000e-05     1     2     2    12
-7.4800720000e-04     1     2     2    13
 4.4771211000e-03     1     2     3     1
-7.7947170000e-02     1     2     3     3
-2.8670300000e-05     1     2     3     4
 1.5357800000e-05     1     2     3     5
 8.3568639000e-03     1     2     3     6
-3.2422960000e-04     1     2     3     7
 2.5774790000e-04     1     2     3     8
 5.2521623300e-02     1     2     3     9
 4.8159260000e-04     1     2     3    10
-3.2212440000e-04     1     2     3    11
-9.9697600000e-05     1     2     3    12
 1.2177580700e-02     1     2     3    13
 4.0453100000e-05     1     2     4     1
-2.8755300000e-05     1     2     4     3
-7.5957088200e-02     1     2     4     4
 3.5200000000e-08     1     2     4     5
 8.4656900000e-05     1     2     4     6
 5.2458880200e-02     1     2     4     7
 8.7338726000e-03     1     2     4     8
 2.5909630000e-04     1     2     4     9
 1.7751768000e-03     1     2     4    10
-1.0777538100e-02     1     2     4    11
 1.9258703000e-03     1     2     4    12
-2.9012110000e-04     1     2     4    13
-2.2057900000e-05     1     2     5     1
 1.5438900000e-05     1     2     5     3
 2.6520000000e-07     1     2     5     4
-7.5957298800e-02     1     2     5     5
-4.6053800000e-05     1     2     5     6
-8.7320644000e-03     1     2     5     7
 5.2458558400e-02     1     2     5     8
-3.0488960000e-04     1     2     5     9
 2.0134960000e-04     1     2     5    10
 1.9905773000e-03     1     2     5    11
 1.0891964900e-02     1     2     5    12
 1.5723650000e-04     1     2     5    13
 7.1527983100e-02     1     2     6     1
 1.8992320000e-03     1     2     6     3
 1.9745000000e-05     1     2     6     4
-1.0945000000e-05     1     2     6     5
-8.2686684500e-02     1     2     6     6
 5.1453200000e-05     1     2     6     7
 1.3426300000e-05     1     2     6     8
 1.1656977800e-02     1     2     6     9
 2.0666630000e-04     1     2     6    10
-2.7943460000e-04     1     2     6    11
-9.8719800000e-05     1     2     6    12
 4.5971244000e-03     1     2     6    13
 1.2142640000e-04     1     2     7     1
-1.5306580000e-04     1     2     7     3
 2.3944015000e-02     1     2     7     4
-3.9845312000e-03     1     2     7     5
 9.1081000000e-06     1     2     7     6
-7.7690976100e-02     1     2     7     7
-5.1290000000e-07     1     2     7     8
 1.2504800000e-05     1     2     7     9
-1.2287175000e-03     1     2     7    10
 7.8536901000e-03     1     2     7    11
-7.5477400000e-05     1     2     7    12
 2.8137860000e-04     1     2     7    13
 3.9254900000e-05     1     2     8     1
 1.1591310000e-04     1     2     8     3
 3.9853927000e-03     1     2     8     4
 2.3943828900e-02     1     2     8     5
 3.3630000000e-07     1     2     8     6
 8.3100000000e-08     1     2     8     7
-7.7689285800e-02     1     2     8     8
-5.0354000000e-06     1     2     8     9
-3.5167490000e-04     1     2     8    10
-1.3304240000e-04     1     2     8    11
-7.9276308000e-03     1     2     8    12
-1.2044740000e-04     1     2     8    13
 2.8210129200e-02     1     2     9     1
 2.2743416200e-02     1     2     9     3
 1.0710960000e-04     1     2     9     4
-1.3297510000e-04     1     2     9     5
 1.8099630000e-03     1     2     9     6
 1.1994100000e-05     1     2     9     7
-5.3107000000e-06     1     2     9     8
-8.3650716800e-02     1     2     9     9
-3.8331480000e-04     1     2     9    10
 2.9934860000e-04     1     2     9    11
 1.2145020000e-04     1     2     9    12
-9.6221318000e-03     1     2     9    13
 2.1875670000e-04     1     2    10     1
 2.2267940000e-04     1     2    10     3
 7.8455180000e-04     1     2    10     4
 8.9405700000e-05     1     2    10     5
 8.9003900000e-05     1     2    10     6
-1.9180051000e-03     1     2    10     7
-5.4871950000e-04     1     2    10     8
-5.8166740000e-04     1     2    10     9
-7.8932607800e-02     1     2    10    10
 1.2974246000e-03     1     2    10    11
-3.7962390000e-04     1     2    10    12
-3.5681790000e-04     1     2    10    13
-1.9690170000e-04     1     2    11     1
-1.4788190000e-04     1     2    11     3
-4.7358412000e-03     1     2    11     4
 8.7483470000e-04     1     2    11     5
-1.5698530000e-04     1     2    11     6
 1.2239968000e-02     1     2    11     7
-2.0963620000e-04     1     2    11     8
 4.5453910000e-04     1     2    11     9
 1.3012560000e-03     1     2    11    10
-8.9775651700e-02     1     2    11    11
-6.3038400000e-05     1     2    11    12
 1.5007200000e-05     1     2    11    13
-6.2549800000e-05     1     2    12     1
-4.5890500000e-05     1     2    12     3
 8.4615460000e-04     1     2    12     4
 4.7859019000e-03     1     2    12     5
-5.7859300000e-05     1     2    12     6
-1.2114330000e-04     1     2    12     7
-1.2354350800e-02     1     2    12     8
 1.8613640000e-04     1     2    12     9
-3.8115890000e-04     1     2    12    10
-6.3284500000e-05     1     2    12    11
-8.9964817100e-02     1     2    12    12
 4.2085000000e-06     1     2    12    13
 5.1423367000e-03     1     2    13     1
 5.5955222000e-03     1     2    13     3
-1.2560680000e-04     1     2    13     4
 6.8105500000e-05     1     2    13     5
 1.8232710000e-03     1     2    13     6
 4.3989940000e-04     1     2    13     7
-1.8538840000e-04     1     2    13     8
-1.4546498800e-02     1     2    13     9
-3.5925550000e-04     1     2    13    10
 1.1784100000e-05     1     2    13    11
 2.7409000000e-06     1     2    13    12
-9.2260500600e-02     1     2    13    13
 4.4771211000e-03     1     3     2     1
-3.8746553000e-02     1     3     2     2
 8.5000000000e-08     1     3     2     4
-8.1100000000e-08     1     3     2     5
 6.4576319000e-03     1     3     2     6
-1.7116380000e-04     1     3     2     7
 1.4183480000e-04     1     3     2     8
 2.9778207100e-02     1     3     2     9
 2.5891320000e-04     1     3     2    10
-1.7424250000e-04     1     3     2    11
-5.3807100000e-05     1     3     2    12
 6.5820585000e-03     1     3     2    13
-1.1187447180e-01     1     3     3     1
 7.7947170000e-02     1     3     3     2
 4.2061640000e-04     1     3     3     4
-2.2596170000e-04     1     3     3     5
-2.4236524900e-02     1     3     3     6
 4.5076800000e-05     1     3     3     7
-1.4096900000e-05     1     3     3     8
 2.2163526000e-03     1     3     3     9
 1.6894276000e-03     1     3     3    10
-8.1202760000e-04     1     3     3    11
-2.7185120000e-04     1     3     3    12
 4.3918336500e-02     1     3     3    13
 1.9460000000e-06     1     3     4     1
 2.8755300000e-05     1     3     4     2
-4.3534447600e-02     1     3     4     4
-7.3000000000e-08     1     3     4     5
-3.0423200000e-05     1     3     4     6
-1.2683022000e-03     1     3     4     7
-2.1072840000e-04     1     3     4     8
-5.3051000000e-05     1     3     4     9
 5.5691051000e-03     1     3     4    10
-3.5925997800e-02     1     3     4    11
 6.4356395000e-03     1     3     4    12
-7.8249470000e-04     1     3     4    13
-1.0435000000e-06     1     3     5     1
-1.5438900000e-05     1     3     5     2
 7.1900000000e-08     1     3     5     4
-4.3534491100e-02     1     3     5     5
 1.6415400000e-05     1     3     5     6
 2.1124110000e-04     1     3     5     7
-1.2690494000e-03     1     3     5     8
 2.7546000000e-05     1     3     5     9
 5.2419740000e-04     1     3     5    10
 6.6027167000e-03     1     3     5    11
 3.6225453300e-02     1     3     5    12
 4.2324200000e-04     1     3     5    13
-4.2497945000e-03     1     3     6     1
-1.8992320000e-03     1     3     6     2
 3.9650000000e-07     1     3     6     4
-2.5930000000e-07     1     3     6     5
-4.4528403500e-02     1     3     6     6
 3.6679300000e-05     1     3     6     7
-4.0308000000e-05     1     3     6     8
-1.1200296200e-02     1     3     6     9
-1.5754460000e-04     1     3     6    10
 1.0400310000e-04     1     3     6    11
 3.1120400000e-05     1     3     6    12
-4.3650994000e-03     1     3     6    13
-3.7874230000e-04     1     3     7     1
 1.5306580000e-04     1     3     7     2
 1.5753652000e-03     1     3     7     4
-2.6257290000e-04     1     3     7     5
-1.0897150000e-04     1     3     7     6
-4.6655503800e-02     1     3     7     7
-9.9600000000e-08     1     3     7     8
-1.4886300000e-05     1     3     7     9
-1.5424886000e-03     1     3     7    10
 1.1113222800e-02     1     3     7    11
-1.2219820000e-04     1     3     7    12
 3.7828130000e-04     1     3     7    13
 2.9380660000e-04     1     3     8     1
-1.1591310000e-04     1     3     8     2
 2.6252920000e-04     1     3     8     4
 1.5752505000e-03     1     3     8     5
 6.9429800000e-05     1     3     8     6
 5.3500000000e-08     1     3     8     7
-4.6655367400e-02     1     3     8     8
 8.8447000000e-06     1     3     8     9
-4.2299750000e-04     1     3     8    10
-1.8974930000e-04     1     3     8    11
-1.1217843300e-02     1     3     8    12
-1.6296400000e-04     1     3     8    13
 5.9876389900e-02     1     3     9     1
-2.2743416200e-02     1     3     9     2
-8.1070000000e-06     1     3     9     4
-7.2520000000e-07     1     3     9     5
 1.0659223200e-02     1     3     9     6
 9.8243000000e-06     1     3     9     7
 8.0690000000e-07     1     3     9     8
-4.6191984700e-02     1     3     9     9
-4.1501850000e-04     1     3     9    10
 3.2527340000e-04     1     3     9    11
 1.3992060000e-04     1     3     9    12
-1.1607751200e-02     1     3     9    13
 2.0249679000e-03     1     3    10     1
-2.2267940000e-04     1     3    10     2
 2.6161030000e-04     1     3    10     4
 2.9953100000e-05     1     3    10     5
 5.3563500000e-05     1     3    10     6
 1.4477650000e-04     1     3    10     7
 3.0405200000e-05     1     3    10     8
 8.6587400000e-05     1     3    10     9
-4.2773527300e-02     1     3    10    10
-1.7496200000e-05     1     3    10    11
-1.0316600000e-05     1     3    10    12
-3.2231800000e-05     1     3    10    13
-1.3434619000e-03     1     3    11     1
 1.4788190000e-04     1     3    11     2
-1.5421470000e-03     1     3    11     4
 2.8300720000e-04     1     3    11     5
-3.6958400000e-05     1     3    11     6
-4.9932610000e-04     1     3    11     7
 4.4513000000e-06     1     3    11     8
-6.2218000000e-06     1     3    11     9
-9.7854300000e-05     1     3    11    10
-4.3713063500e-02     1     3    11    11
 7.1840000000e-07     1     3    11    12
 7.8159600000e-05     1     3    11    13
-4.3880940000e-04     1     3    12     1
 4.5890500000e-05     1     3    12     2
 2.7422660000e-04     1     3    12     4
 1.5578134000e-03     1     3    12     5
-1.2211300000e-05     1     3    12     6
 5.2560000000e-06     1     3    12     7
 4.8723070000e-04     1     3    12     8
-5.5196000000e-06     1     3    12     9
 3.8885500000e-05     1     3    12    10
-2.3180000000e-07     1     3    12    11
-4.3741304900e-02     1     3    12    12
 2.3175100000e-05     1     3    12    13
 5.0561885500e-02     1     3    13     1
-5.5955222000e-03     1     3    13     2
-5.8694900000e-05     1     3    13     4
 3.0867400000e-05     1     3    13     5
 1.0731212000e-03     1     3    13     6
 3.9475000000e-06     1     3    13     7
 1.4502000000e-06     1     3    13     8
 1.4582202000e-03     1     3    13     9
-1.3176500000e-05     1     3    13    10
-5.4655800000e-05     1     3    13    11
-1.5472400000e-05     1     3    13    12
-4.5177811300e-02     1     3    13    13
 4.0453100000e-05     1     4     2     1
-3.7585620000e-04     1     4     2     2
-8.5000000000e-08     1     4     2     3
-2.3000000000e-07     1     4     2     5
 6.4911900000e-05     1     4     2     6
 2.8514865200e-02     1     4     2     7
 4.7484799000e-03     1     4     2     8
 1.5198670000e-04     1     4     2     9
 9.9062500000e-04     1     4     2    10
-6.0416969000e-03     1     4     2    11
 1.0797157000e-03     1     4     2    12
-1.6451430000e-04     1     4     2    13
 1.9460000000e-06     1     4     3     1
 2.8670300000e-05     1     4     3     2
-4.2061640000e-04     1     4     3     3
-1.4490000000e-07     1     4     3     5
-3.0819700000e-05     1     4     3     6
-2.8436674000e-03     1     4     3     7
-4.7325760000e-04     1     4     3     8
-4.4944000000e-05     1     4     3     9
 5.3074948000e-03     1     4     3    10
-3.4383850800e-02     1     4     3    11
 6.1614129000e-03     1     4     3    12
-7.2379980000e-04     1     4     3    13
-1.1326235120e-01     1     4     4     1
 7.5957088200e-02     1     4     4     2
 4.3534447600e-02     1     4     4     3
-2.2665350000e-04     1     4     4     5
-2.1340109300e-02     1     4     4     6
 5.2966000000e-06     1     4     4     7
 4.7830000000e-07     1     4     4     8
 7.0252058000e-03     1     4     4     9
 3.2154053000e-02     1     4     4    10
 5.1729172000e-03     1     4     4    11
-9.2683970000e-04     1     4     4    12
-2.0088584600e-02     1     4     4    13
-8.5000000000e-09     1     4     5     1
-2.6520000000e-07     1     4     5     2
-7.1900000000e-08     1     4     5     3
-4.2187700000e-04     1     4     5     5
 1.2320000000e-07     1     4     5     6
 1.6703100000e-05     1     4     5     7
-8.4068000000e-06     1     4     5     8
 1.7550000000e-07     1     4     5     9
-3.9390706000e-03     1     4     5    10
-5.4717810000e-04     1     4     5    11
 2.8999590000e-03     1     4     5    12
-1.2349429000e-03     1     4     5    13
-3.8074200000e-05     1     4     6     1
-1.9745000000e-05     1     4     6     2
-3.9650000000e-07     1     4     6     3
-6.3700000000e-08     1     4     6     5
-4.3060700000e-04     1     4     6     6
-7.5107735000e-03     1     4     6     7
-1.2512299000e-03     1     4     6     8
-6.3821500000e-05     1     4     6     9
-5.6954520000e-04     1     4     6    10
 3.6841839000e-03     1     4     6    11
-6.5709150000e-04     1     4     6    12
 9.8658000000e-05     1     4     6    13
 5.9660028900e-02     1     4     7     1
-2.3944015000e-02     1     4     7     2
-1.5753652000e-03     1     4     7     3
 5.8226000000e-06     1     4     7     5
 1.5010535100e-02     1     4     7     6
-4.4530950000e-04     1     4     7     7
 2.9429000000e-06     1     4     7     8
 1.4188087000e-03     1     4     7     9
-6.2924084000e-03     1     4     7    10
-1.1246231000e-03     1     4     7    11
 3.3494110000e-04     1     4     7    12
 3.9577172000e-03     1     4     7    13
 9.9335929000e-03     1     4     8     1
-3.9853927000e-03     1     4     8     2
-2.6252920000e-04     1     4     8     3
 1.7208300000e-05     1     4     8     5
 2.4988561000e-03     1     4     8     6
 2.9730000000e-07     1     4     8     7
-4.5167770000e-04     1     4     8     8
 2.3634050000e-04     1     4     8     9
-3.4715490000e-04     1     4     8    10
-3.5289900000e-05     1     4     8    11
-6.0060640000e-04     1     4     8    12
 9.3733620000e-04     1     4     8    13
 2.8626650000e-04     1     4     9     1
-1.0710960000e-04     1     4     9     2
 8.1070000000e-06     1     4     9     3
-1.9390000000e-07     1     4     9     5
 3.6650300000e-05     1     4     9     6
-1.0155486000e-03     1     4     9     7
-1.6900560000e-04     1     4     9     8
-4.5666210000e-04     1     4     9     9
-7.3118780000e-04     1     4     9    10
 5.4544780000e-03     1     4     9    11
-9.7746170000e-04     1     4     9    12
 8.6114400000e-05     1     4     9    13
 7.1671749000e-03     1     4    10     1
-7.8455180000e-04     1     4    10     2
-2.6161030000e-04     1     4    10     3
 1.4506000000e-06     1     4    10     5
 1.9693370000e-04     1     4    10     6
 2.8261013000e-03     1     4    10     7
 3.4285600000e-05     1     4    10     8
 6.2860470000e-04     1     4    10     9
-3.5807180000e-04     1     4    10    10
-3.7424827000e-03     1     4    10    11
 9.0633000000e-05     1     4    10    12
 1.1034322000e-03     1     4    10    13
-4.3079952600e-02     1     4    11     1
 4.7358412000e-03     1     4    11     2
 1.5421470000e-03     1     4    11     3
-4.6807000000e-06     1     4    11     5
-1.0157654000e-03     1     4    11     6
 3.9465900000e-04     1     4    11     7
-6.1937000000e-06     1     4    11     8
-3.3399161000e-03     1     4    11     9
 3.0062932000e-03     1     4    11    10
-3.7374220000e-04     1     4    11    11
-7.5099100000e-05     1     4    11    12
-7.0360366000e-03     1     4    11    13
 7.6985374000e-03     1     4    12     1
-8.4615460000e-04     1     4    12     2
-2.7422660000e-04     1     4    12     3
 1.7379100000e-05     1     4    12     5
 1.8211740000e-04     1     4    12     6
-1.0066480000e-04     1     4    12     7
 2.0893130000e-04     1     4    12     8
 5.9470450000e-04     1     4    12     9
-2.0336570000e-04     1     4    12    10
 5.8029300000e-05     1     4    12    11
-3.6600560000e-04     1     4    12    12
 1.3945795000e-03     1     4    12    13
-1.1639130000e-03     1     4    13     1
 1.2560680000e-04     1     4    13     2
 5.8694900000e-05     1     4    13     3
 3.9100000000e-08     1     4    13     5
-2.7092500000e-05     1     4    13     6
-7.4282530000e-04     1     4    13     7
-2.1751920000e-04     1     4    13     8
-9.6922100000e-05     1     4    13     9
-6.6290300000e-04     1     4    13    10
 5.4663159000e-03     1     4    13    11
-1.1333338000e-03     1     4    13    12
-4.6323270000e-04     1     4    13    13
-2.2057900000e-05     1     5     2     1
 2.0218390000e-04     1     5     2     2
 8.1100000000e-08     1     5     2     3
 2.3000000000e-07     1     5     2     4
-3.5108800000e-05     1     5     2     6
-4.7475332000e-03     1     5     2     7
 2.8514729500e-02     1     5     2     8
-1.7191450000e-04     1     5     2     9
 1.1194390000e-04     1     5     2    10
 1.1157426000e-03     1     5     2    11
 6.1060630000e-03     1     5     2    12
 8.9131000000e-05     1     5     2    13
-1.0435000000e-06     1     5     3     1
-1.5357800000e-05     1     5     3     2
 2.2596170000e-04     1     5     3     3
 1.4490000000e-07     1     5     3     4
 1.6674700000e-05     1     5     3     6
 4.7381400000e-04     1     5     3     7
-2.8442999000e-03     1     5     3     8
 2.8271200000e-05     1     5     3     9
 4.9424430000e-04     1     5     3    10
 6.3197095000e-03     1     5     3    11
 3.4667639900e-02     1     5     3    12
 3.9237460000e-04     1     5     3    13
-8.5000000000e-09     1     5     4     1
-3.5200000000e-08     1     5     4     2
 7.3000000000e-08     1     5     4     3
 2.2665350000e-04     1     5     4     4
 1.8690000000e-07     1     5     4     6
 1.0880500000e-05     1     5     4     7
-2.5615100000e-05     1     5     4     8
 3.6940000000e-07     1     5     4     9
-3.9405212000e-03     1     5     4    10
-5.4249740000e-04     1     5     4    11
 2.8825799000e-03     1     5     4    12
-1.2349820000e-03     1     5     4    13
-1.1326311540e-01     1     5     5     1
 7.5957298800e-02     1     5     5     2
 4.3534491100e-02     1     5     5     3
 4.2187700000e-04     1     5     5     4
-2.1340222700e-02     1     5     5     6
 3.9811300000e-05     1     5     5     7
 2.7839200000e-05     1     5     5     8
 7.0255074000e-03     1     5     5     9
-3.3566582800e-02     1     5     5    10
-4.6236869000e-03     1     5     5    11
 1.1111401000e-03     1     5     5    12
-1.7362363400e-02     1     5     5    13
 1.9931900000e-05     1     5     6     1
 1.0945000000e-05     1     5     6     2
 2.5930000000e-07     1     5     6     3
 6.3700000000e-08     1     5     6     4
 2.3119900000e-04     1     5     6     6
 1.2510539000e-03     1     5     6     7
-7.5103858000e-03     1     5     6     8
 6.3347300000e-05     1     5     6     9
-6.4570300000e-05     1     5     6    10
-6.7910550000e-04     1     5     6    11
-3.7277416000e-03     1     5     6    12
-5.4506500000e-05     1     5     6    13
-9.9308388000e-03     1     5     7     1
 3.9845312000e-03     1     5     7     2
 2.6257290000e-04     1     5     7     3
-5.8226000000e-06     1     5     7     4
-2.4982650000e-03     1     5     7     6
 2.4270160000e-04     1     5     7     7
-4.2379000000e-06     1     5     7     8
-2.3614770000e-04     1     5     7     9
-3.7391200000e-04     1     5     7    10
-7.5963900000e-05     1     5     7    11
-5.0059810000e-04     1     5     7    12
-2.9194520000e-04     1     5     7    13
 5.9659039900e-02     1     5     8     1
-2.3943828900e-02     1     5     8     2
-1.5752505000e-03     1     5     8     3
-1.7208300000e-05     1     5     8     4
 1.5010756400e-02     1     5     8     6
 5.1495000000e-06     1     5     8     7
 2.4212630000e-04     1     5     8     8
 1.4186322000e-03     1     5     8     9
 6.5192125000e-03     1     5     8    10
 1.0819742000e-03     1     5     8    11
-3.4008890000e-04     1     5     8    12
 3.4177351000e-03     1     5     8    13
-3.4535290000e-04     1     5     9     1
 1.3297510000e-04     1     5     9     2
 7.2520000000e-07     1     5     9     3
 1.9390000000e-07     1     5     9     4
-6.3388200000e-05     1     5     9     6
 1.6894020000e-04     1     5     9     7
-1.0156277000e-03     1     5     9     8
 2.4336660000e-04     1     5     9     9
-9.1699500000e-05     1     5     9    10
-1.0085450000e-03     1     5     9    11
-5.5156091000e-03     1     5     9    12
-5.7613500000e-05     1     5     9    13
 8.0392360000e-04     1     5    10     1
-8.9405700000e-05     1     5    10     2
-2.9953100000e-05     1     5    10     3
-1.4506000000e-06     1     5    10     4
 2.2778900000e-05     1     5    10     6
 4.8567800000e-05     1     5    10     7
-2.9186039000e-03     1     5    10     8
 7.4034200000e-05     1     5    10     9
 1.9127530000e-04     1     5    10    10
-1.8149980000e-04     1     5    10    11
-4.1825749000e-03     1     5    10    12
 9.3512700000e-05     1     5    10    13
 7.9531286000e-03     1     5    11     1
-8.7483470000e-04     1     5    11     2
-2.8300720000e-04     1     5    11     3
 4.6807000000e-06     1     5    11     4
 1.8859200000e-04     1     5    11     6
-1.5904100000e-05     1     5    11     7
-2.9938610000e-04     1     5    11     8
 6.1528860000e-04     1     5    11     9
 2.8737590000e-04     1     5    11    10
 2.5624640000e-04     1     5    11    11
-1.3386950000e-04     1     5    11    12
 1.1047916000e-03     1     5    11    13
 4.3523491700e-02     1     5    12     1
-4.7859019000e-03     1     5    12     2
-1.5578134000e-03     1     5    12     3
-1.7379100000e-05     1     5    12     4
 1.0234360000e-03     1     5    12     6
 2.0875740000e-04     1     5    12     7
 1.4461200000e-04     1     5    12     8
 3.3610599000e-03     1     5    12     9
 3.4773828000e-03     1     5    12    10
 9.2367300000e-05     1     5    12    11
 2.3113570000e-04     1     5    12    12
 6.7853592000e-03     1     5    12    13
 6.0968100000e-04     1     5    13     1
-6.8105500000e-05     1     5    13     2
-3.0867400000e-05     1     5    13     3
-3.9100000000e-08     1     5    13     4