&FCI NORB= 13,NELEC=  2,MS2=0,
 ORBSYM=1,1,1,1,1,1,1,1,1,1,1,1,1
 ISYM=1,
&END
 1.2309804530e-01     1     1     2     2
-5.2794000000e-06     1     1     2     3
-3.2665500000e-05     1     1     2     4
-1.1226521600e-02     1     1     2     5
-9.4363523000e-02     1     1     2     6
 5.0835500000e-05     1     1     2     7
-1.9088710000e-04     1     1     2     8
 1.3020273600e-02     1     1     2     9
-3.3505210000e-04     1     1     2    10
-1.3221360000e-04     1     1     2    11
-4.4712260000e-04     1     1     2    12
-2.4846969000e-03     1     1     2    13
-5.2794000000e-06     1     1     3     2
 1.5136609660e-01     1     1     3     3
 1.8700000000e-08     1     1     3     4
 6.3154000000e-06     1     1     3     5
 1.0323940000e-04     1     1     3     6
 6.1477439000e-02     1     1     3     7
-3.4992076000e-02     1     1     3     8
 4.1229400000e-05     1     1     3     9
-2.6471000000e-05     1     1     3    10
 7.6261850000e-04     1     1     3    11
-4.3077559700e-02     1     1     3    12
 1.6701158000e-03     1     1     3    13
-3.2665500000e-05     1     1     4     2
 1.8700000000e-08     1     1     4     3
 1.5136711170e-01     1     1     4     4
 3.7374300000e-05     1     1     4     5
 1.1553120000e-04     1     1     4     6
-3.4989625600e-02     1     1     4     7
-6.1473557200e-02     1     1     4     8
 2.2167100000e-04     1     1     4     9
 3.9539500000e-05     1     1     4    10
 5.4501680000e-04     1     1     4    11
-1.5480553000e-03     1     1     4    12
-4.2748512400e-02     1     1     4    13
-1.1226521600e-02     1     1     5     2
 6.3154000000e-06     1     1     5     3
 3.7374300000e-05     1     1     5     4
 1.6744942890e-01     1     1     5     5
 5.9964950000e-03     1     1     5     6
 6.1223200000e-05     1     1     5     7
 1.8485370000e-04     1     1     5     8
 7.7522288700e-02     1     1     5     9
-4.7889260000e-04     1     1     5    10
-1.9691870000e-04     1     1     5    11
-6.2917500000e-04     1     1     5    12
-3.5021003000e-03     1     1     5    13
-9.4363523000e-02     1     1     6     2
 1.0323940000e-04     1     1     6     3
 1.1553120000e-04     1     1     6     4
 5.9964950000e-03     1     1     6     5
 2.1474658940e-01     1     1     6     6
-4.0648000000e-06     1     1     6     7
 1.2102800000e-05     1     1     6     8
-3.9699317000e-03     1     1     6     9
-3.7480300000e-05     1     1     6    10
-1.3035400000e-05     1     1     6    11
-2.5475700000e-05     1     1     6    12
-1.1795810000e-04     1     1     6    13
 5.0835500000e-05     1     1     7     2
 6.1477439000e-02     1     1     7     3
-3.4989625600e-02     1     1     7     4
 6.1223200000e-05     1     1     7     5
-4.0648000000e-06     1     1     7     6
 2.1748896900e-01     1     1     7     7
-4.3840000000e-07     1     1     7     8
-8.5720000000e-07     1     1     7     9
-7.5636000000e-06     1     1     7    10
 6.2095700000e-05     1     1     7    11
-6.4821444000e-03     1     1     7    12
 3.9995212000e-03     1     1     7    13
-1.9088710000e-04     1     1     8     2
-3.4992076000e-02     1     1     8     3
-6.1473557200e-02     1     1     8     4
 1.8485370000e-04     1     1     8     5
 1.2102800000e-05     1     1     8     6
-4.3840000000e-07     1     1     8     7
 2.1748162570e-01     1     1     8     8
-1.4441900000e-05     1     1     8     9
-4.8202000000e-06     1     1     8    10
-1.3718790000e-04     1     1     8    11
 4.0035367000e-03     1     1     8    12
 6.4268817000e-03     1     1     8    13
 1.3020273600e-02     1     1     9     2
 4.1229400000e-05     1     1     9     3
 2.2167100000e-04     1     1     9     4
 7.7522288700e-02     1     1     9     5
-3.9699317000e-03     1     1     9     6
-8.5720000000e-07     1     1     9     7
-1.4441900000e-05     1     1     9     8
 2.4574784200e-01     1     1     9     9
 1.0753620000e-04     1     1     9    10
 3.7075800000e-05     1     1     9    11
 1.2821690000e-04     1     1     9    12
 6.9841000000e-04     1     1     9    13
-3.3505210000e-04     1     1    10     2
-2.6471000000e-05     1     1    10     3
 3.9539500000e-05     1     1    10     4
-4.7889260000e-04     1     1    10     5
-3.7480300000e-05     1     1    10     6
-7.5636000000e-06     1     1    10     7
-4.8202000000e-06     1     1    10     8
 1.0753620000e-04     1     1    10     9
 1.9781909730e-01     1     1    10    10
-1.3208000000e-06     1     1    10    11
 1.0315200000e-05     1     1    10    12
 1.5884000000e-05     1     1    10    13
-1.3221360000e-04     1     1    11     2
 7.6261850000e-04     1     1    11     3
 5.4501680000e-04     1     1    11     4
-1.9691870000e-04     1     1    11     5
-1.3035400000e-05     1     1    11     6
 6.2095700000e-05     1     1    11     7
-1.3718790000e-04     1     1    11     8
 3.7075800000e-05     1     1    11     9
-1.3208000000e-06     1     1    11    10
 1.9781440030e-01     1     1    11    11
-1.0666720000e-04     1     1    11    12
-8.0639100000e-05     1     1    11    13
-4.4712260000e-04     1     1    12     2
-4.3077559700e-02     1     1    12     3
-1.5480553000e-03     1     1    12     4
-6.2917500000e-04     1     1    12     5
-2.5475700000e-05     1     1    12     6
-6.4821444000e-03     1     1    12     7
 4.0035367000e-03     1     1    12     8
 1.2821690000e-04     1     1    12     9
 1.0315200000e-05     1     1    12    10
-1.0666720000e-04     1     1    12    11
 2.0988435230e-01     1     1    12    12
 1.8549900000e-05     1     1    12    13
-2.4846969000e-03     1     1    13     2
 1.6701158000e-03     1     1    13     3
-4.2748512400e-02     1     1    13     4
-3.5021003000e-03     1     1    13     5
-1.1795810000e-04     1     1    13     6
 3.9995212000e-03     1     1    13     7
 6.4268817000e-03     1     1    13     8
 6.9841000000e-04     1     1    13     9
 1.5884000000e-05     1     1    13    10
-8.0639100000e-05     1     1    13    11
 1.8549900000e-05     1     1    13    12
 2.1004337180e-01     1     1    13    13
-1.2309804530e-01     1     2     2     1
-1.4410400000e-05     1     2     2     3
-8.3965400000e-05     1     2     2     4
-2.8262720200e-02     1     2     2     5
-5.8825581300e-02     1     2     2     6
 3.3827600000e-05     1     2     2     7
-1.1616170000e-04     1     2     2     8
-4.7683579000e-03     1     2     2     9
-2.3308640000e-04     1     2     2    10
-9.0228700000e-05     1     2     2    11
-3.1646950000e-04     1     2     2    12
-1.7476041000e-03     1     2     2    13
 5.2794000000e-06     1     2     3     1
 9.2549420100e-02     1     2     3     3
 1.8000000000e-09     1     2     3     4
 1.1905000000e-06     1     2     3     5
 7.3427300000e-05     1     2     3     6
 4.7035330500e-02     1     2     3     7
-2.6771772400e-02     1     2     3     8
 2.8321300000e-05     1     2     3     9
-1.0257700000e-05     1     2     3    10
 2.9077980000e-04     1     2     3    11
-1.6612317500e-02     1     2     3    12
 6.4580350000e-04     1     2     3    13
 3.2665500000e-05     1     2     4     1
 6.9000000000e-09     1     2     4     3
 9.2549800400e-02     1     2     4     4
 6.9102000000e-06     1     2     4     5
 5.5506800000e-05     1     2     4     6
-2.6771027000e-02     1     2     4     7
-4.7033427500e-02     1     2     4     8
 1.5580800000e-04     1     2     4     9
 1.5730000000e-05     1     2     4    10
 2.0811930000e-04     1     2     4    11
-5.9665990000e-04     1     2     4    12
-1.6486002200e-02     1     2     4    13
 1.1226521600e-02     1     2     5     1
 1.4074000000e-06     1     2     5     3
 8.2783000000e-06     1     2     5     4
 9.6502289700e-02     1     2     5     5
-6.2376437000e-03     1     2     5     6
 5.3868000000e-05     1     2     5     7
 1.2811370000e-04     1     2     5     8
 5.5843097200e-02     1     2     5     9
-5.6794500000e-05     1     2     5    10
-2.9753900000e-05     1     2     5    11
-7.3465400000e-05     1     2     5    12
-4.3107160000e-04     1     2     5    13
 9.4363523000e-02     1     2     6     1
 2.0987000000e-05     1     2     6     3
 1.7431400000e-05     1     2     6     4
-1.2030620000e-03     1     2     6     5
 1.0435477320e-01     1     2     6     6
-4.0639000000e-06     1     2     6     7
 1.1312500000e-05     1     2     6     8
 3.2969234000e-03     1     2     6     9
 1.7567600000e-05     1     2     6    10
 7.1265000000e-06     1     2     6    11
 3.7227100000e-05     1     2     6    12
 2.1310000000e-04     1     2     6    13
-5.0835500000e-05     1     2     7     1
 1.2991165700e-02     1     2     7     3
-7.3919876000e-03     1     2     7     4
 1.4176400000e-05     1     2     7     5
-3.0842000000e-06     1     2     7     6
 1.0420456530e-01     1     2     7     7
-1.3151000000e-06     1     2     7     8
-3.6251000000e-06     1     2     7     9
-4.0630000000e-06     1     2     7    10
 3.7455400000e-05     1     2     7    11
-3.5115589000e-03     1     2     7    12
 2.1660256000e-03     1     2     7    13
 1.9088710000e-04     1     2     8     1
-7.3922985000e-03     1     2     8     3
-1.2990653600e-02     1     2     8     4
 3.5430500000e-05     1     2     8     5
 1.3478600000e-05     1     2     8     6
 4.6060000000e-07     1     2     8     7
 1.0420028040e-01     1     2     8     8
-2.7500000000e-08     1     2     8     9
-2.1034000000e-06     1     2     8    10
-7.9732000000e-05     1     2     8    11
 2.1698026000e-03     1     2     8    12
 3.4791366000e-03     1     2     8    13
-1.3020273600e-02     1     2     9     1
 7.8103000000e-06     1     2     9     3
 4.3058000000e-05     1     2     9     4
 1.5553571400e-02     1     2     9     5
-3.0634703000e-03     1     2     9     6
 4.7240000000e-07     1     2     9     7
-1.0842500000e-05     1     2     9     8
 1.2452249780e-01     1     2     9     9
 5.4932600000e-05     1     2     9    10
 1.7544800000e-05     1     2     9    11
 6.7744800000e-05     1     2     9    12
 3.7146470000e-04     1     2     9    13
 3.3505210000e-04     1     2    10     1
-2.5789000000e-06     1     2    10     3
 4.0926000000e-06     1     2    10     4
-1.8505500000e-05     1     2    10     5
 6.9584000000e-06     1     2    10     6
-6.8555000000e-06     1     2    10     7
-3.8235000000e-06     1     2    10     8
 1.0254500000e-05     1     2    10     9
 8.8715700500e-02     1     2    10    10
 1.0246000000e-06     1     2    10    11
 8.0081000000e-06     1     2    10    12
 8.9235000000e-06     1     2    10    13
 1.3221360000e-04     1     2    11     1
 7.0394000000e-05     1     2    11     3
 5.1014200000e-05     1     2    11     4
-9.2857000000e-06     1     2    11     5
 3.8490000000e-06     1     2    11     6
 6.0591000000e-05     1     2    11     7
-1.3170730000e-04     1     2    11     8
 3.3200000000e-07     1     2    11     9
 1.0188000000e-06     1     2    11    10
 8.8716263100e-02     1     2    11    11
-9.7666700000e-05     1     2    11    12
-7.3409900000e-05     1     2    11    13
 4.4712260000e-04     1     2    12     1
-4.0399643000e-03     1     2    12     3
-1.4504110000e-04     1     2    12     4
-2.3088500000e-05     1     2    12     5
 1.5838700000e-05     1     2    12     6
-5.7562609000e-03     1     2    12     7
 3.5566146000e-03     1     2    12     8
 7.2937000000e-06     1     2    12     9
 7.8096000000e-06     1     2    12    10
-9.8713700000e-05     1     2    12    11
 9.7446882700e-02     1     2    12    12
 7.8136000000e-06     1     2    12    13
 2.4846969000e-03     1     2    13     1
 1.5695890000e-04     1     2    13     3
-4.0097345000e-03     1     2    13     4
-1.3628530000e-04     1     2    13     5
 1.1842530000e-04     1     2    13     6
 3.5491727000e-03     1     2    13     7
 5.7022248000e-03     1     2    13     8
 3.9121500000e-05     1     2    13     9
 9.8568000000e-06     1     2    13    10
-7.1172400000e-05     1     2    13    11
 8.1517000000e-06     1     2    13    12
 9.7527406300e-02     1     2    13    13
 5.2794000000e-06     1     3     2     1
 1.4410400000e-05     1     3     2     2
-5.1000000000e-09     1     3     2     4
-2.1690000000e-07     1     3     2     5
 5.2440300000e-05     1     3     2     6
 3.4044164800e-02     1     3     2     7
-1.9379473900e-02     1     3     2     8
 2.0511000000e-05     1     3     2     9
-7.6788000000e-06     1     3     2    10
 2.2038580000e-04     1     3     2    11
-1.2572353200e-02     1     3     2    12
 4.8884460000e-04     1     3     2    13
-1.5136609660e-01     1     3     3     1
-9.2549420100e-02     1     3     3     2
-8.0218200000e-05     1     3     3     4
-2.7166542800e-02     1     3     3     5
 1.6001491800e-02     1     3     3     6
-1.5322600000e-05     1     3     3     7
 5.0341800000e-05     1     3     3     8
 3.5293850000e-04     1     3     3     9
-1.5703899600e-02     1     3     3    10
-3.4980434400e-02     1     3     3    11
-1.3887880000e-04     1     3     3    12
 2.4762704000e-03     1     3     3    13
-1.8700000000e-08     1     3     4     1
-6.9000000000e-09     1     3     4     2
 1.4028100000e-05     1     3     4     4
-2.0000000000e-09     1     3     4     5
 3.6320000000e-07     1     3     4     6
-2.5912900000e-05     1     3     4     7
 2.1356000000e-05     1     3     4     8
-6.6708000000e-06     1     3     4     9
 3.5678809100e-02     1     3     4    10
-1.6331276700e-02     1     3     4    11
-4.4733060000e-04     1     3     4    12
-2.3981360000e-04     1     3     4    13
-6.3154000000e-06     1     3     5     1
-1.4074000000e-06     1     3     5     2
-1.9000000000e-09     1     3     5     4
 1.4768100000e-05     1     3     5     5
-8.2244000000e-06     1     3     5     6
-9.4310915000e-03     1     3     5     7
 5.3693935000e-03     1     3     5     8
 4.5217000000e-06     1     3     5     9
-1.2373800000e-04     1     3     5    10
 7.5899900000e-04     1     3     5    11
-3.9612863000e-02     1     3     5    12
 1.5309147000e-03     1     3     5    13
-1.0323940000e-04     1     3     6     1
-2.0987000000e-05     1     3     6     2
-2.1000000000e-09     1     3     6     4
 5.6790000000e-07     1     3     6     5
 3.6522800000e-05     1     3     6     6
-4.7201925000e-03     1     3     6     7
 2.6878989000e-03     1     3     6     8
 7.2950000000e-07     1     3     6     9
 6.8168000000e-06     1     3     6    10
-7.0405700000e-05     1     3     6    11
 3.6885965000e-03     1     3     6    12
-1.4159770000e-04     1     3     6    13
-6.1477439000e-02     1     3     7     1
-1.2991165700e-02     1     3     7     2
 4.6440000000e-07     1     3     7     4
 4.0823050000e-04     1     3     7     5
 1.5816612500e-02     1     3     7     6
 7.2565000000e-06     1     3     7     7
 3.3268600000e-05     1     3     7     8
 6.7874837000e-03     1     3     7     9
-4.9930747000e-03     1     3     7    10
-3.9912156000e-03     1     3     7    11
 1.2165720000e-04     1     3     7    12
 1.1187363000e-03     1     3     7    13
 3.4992076000e-02     1     3     8     1
 7.3922985000e-03     1     3     8     2
-1.9640000000e-07     1     3     8     4
-2.3165840000e-04     1     3     8     5
-9.0024574000e-03     1     3     8     6
-2.8238000000e-06     1     3     8     7
 2.4500000000e-06     1     3     8     8
-3.8617489000e-03     1     3     8     9
-3.5316876000e-03     1     3     8    10
 5.2449399000e-03     1     3     8    11
 1.6350300000e-05     1     3     8    12
-5.8453860000e-04     1     3     8    13
-4.1229400000e-05     1     3     9     1
-7.8103000000e-06     1     3     9     2
 1.5000000000e-09     1     3     9     4
-2.2340000000e-07     1     3     9     5
 1.1939700000e-05     1     3     9     6
 4.8404580000e-03     1     3     9     7
-2.7555389000e-03     1     3     9     8
 1.3887900000e-05     1     3     9     9
-5.3930000000e-07     1     3     9    10
 2.8638000000e-05     1     3     9    11
-2.9285302000e-03     1     3     9    12
 1.1336340000e-04     1     3     9    13
 2.6471000000e-05     1     3    10     1
 2.5789000000e-06     1     3    10     2
 3.2560000000e-07     1     3    10     4
 3.8100000000e-07     1     3    10     5
-6.9380000000e-06     1     3    10     6
 5.4050609000e-03     1     3    10     7
 4.3528068000e-03     1     3    10     8
 7.7691000000e-06     1     3    10     9
 1.4656300000e-05     1     3    10    10
-2.1385000000e-05     1     3    10    11
-1.1310045000e-03     1     3    10    12
 3.6627048000e-03     1     3    10    13
-7.6261850000e-04     1     3    11     1
-7.0394000000e-05     1     3    11     2
-1.1900000000e-07     1     3    11     4
-2.2628000000e-06     1     3    11     5
 6.8398400000e-05     1     3    11     6
 3.2579337000e-03     1     3    11     7
-5.1830922000e-03     1     3    11     8
-1.9924920000e-04     1     3    11     9
 1.0877900000e-05     1     3    11    10
 1.8493800000e-05     1     3    11    11
-3.0039623000e-03     1     3    11    12
-1.5343682000e-03     1     3    11    13
 4.3077559700e-02     1     3    12     1
 4.0399643000e-03     1     3    12     2
-3.6190000000e-07     1     3    12     4
-8.3480000000e-07     1     3    12     5
-2.9785857000e-03     1     3    12     6
 7.1149100000e-05     1     3    12     7
-1.0785850000e-04     1     3    12     8
 1.0384692200e-02     1     3    12     9
 1.1887796000e-03     1     3    12    10
 2.9132551000e-03     1     3    12    11
 7.1654300000e-05     1     3    12    12
-4.2163060000e-04     1     3    12    13
-1.6701158000e-03     1     3    13     1
-1.5695890000e-04     1     3    13     2
 3.6100000000e-08     1     3    13     4
 4.4010000000e-07     1     3    13     5
 1.1624170000e-04     1     3    13     6
 1.7544340000e-04     1     3    13     7
-1.4423050000e-04     1     3    13     8
-4.0058750000e-04     1     3    13     9
-2.5441401000e-03     1     3    13    10
 1.0186561000e-03     1     3    13    11
 7.1838690000e-04     1     3    13    12
 4.7069000000e-06     1     3    13    13
 3.2665500000e-05     1     4     2     1
 8.3965400000e-05     1     4     2     2
 5.1000000000e-09     1     4     2     3
-1.3681000000e-06     1     4     2     5
 3.8075400000e-05     1     4     2     6
-1.9379039400e-02     1     4     2     7
-3.4042773900e-02     1     4     2     8
 1.1275000000e-04     1     4     2     9
 1.1637400000e-05     1     4     2    10
 1.5710510000e-04     1     4     2    11
-4.5161880000e-04     1     4     2    12
-1.2476267700e-02     1     4     2    13
-1.8700000000e-08     1     4     3     1
-1.8000000000e-09     1     4     3     2
 8.0218200000e-05     1     4     3     3
-1.0000000000e-10     1     4     3     5
 3.6530000000e-07     1     4     3     6
-2.6377300000e-05     1     4     3     7
 2.1552400000e-05     1     4     3     8
-6.6723000000e-06     1     4     3     9
 3.5678483500e-02     1     4     3    10
-1.6331157700e-02     1     4     3    11
-4.4696870000e-04     1     4     3    12
-2.3984970000e-04     1     4     3    13
-1.5136711170e-01     1     4     4     1
-9.2549800400e-02     1     4     4     2
-1.4028100000e-05     1     4     4     3
-2.7166525400e-02     1     4     4     5
 1.6001737200e-02     1     4     4     6
 2.4252200000e-05     1     4     4     7
 9.8200600000e-05     1     4     4     8
 3.5219990000e-04     1     4     4     9
 1.6459755000e-02     1     4     4    10
 3.5276735200e-02     1     4     4    11
 1.1249924000e-03     1     4     4    12
 2.9860016000e-03     1     4     4    13
-3.7374300000e-05     1     4     5     1
-8.2783000000e-06     1     4     5     2
 1.9000000000e-09     1     4     5     3
 8.4312600000e-05     1     4     5     5
 3.6145200000e-05     1     4     5     6
 5.3715341000e-03     1     4     5     7
 9.4341033000e-03     1     4     5     8
 1.4162500000e-05     1     4     5     9
-3.3090100000e-05     1     4     5    10
 3.9857530000e-04     1     4     5    11
-1.4277351000e-03     1     4     5    12
-3.9330159600e-02     1     4     5    13
-1.1553120000e-04     1     4     6     1
-1.7431400000e-05     1     4     6     2
 2.1000000000e-09     1     4     6     3
-3.9350000000e-07     1     4     6     5
 1.0135470000e-04     1     4     6     6
 2.6882755000e-03     1     4     6     7
 4.7190346000e-03     1     4     6     8
-5.2423000000e-05     1     4     6     9
 1.0199200000e-05     1     4     6    10
-3.5176800000e-05     1     4     6    11
 1.3264720000e-04     1     4     6    12
 3.6674061000e-03     1     4     6    13
 3.4989625600e-02     1     4     7     1
 7.3919876000e-03     1     4     7     2
-4.6440000000e-07     1     4     7     3
-2.3163870000e-04     1     4     7     5
-9.0016544000e-03     1     4     7     6
 9.4629600000e-05     1     4     7     7
-2.3033700000e-05     1     4     7     8
-3.8647332000e-03     1     4     7     9
 3.3698553000e-03     1     4     7    10
-5.3068055000e-03     1     4     7    11
-2.6454000000e-04     1     4     7    12
-7.0023780000e-04     1     4     7    13
 6.1473557200e-02     1     4     8     1
 1.2990653600e-02     1     4     8     2
 1.9640000000e-07     1     4     8     3
-4.0827230000e-04     1     4     8     5
-1.5816899300e-02     1     4     8     6
 1.2755400000e-05     1     4     8     7
 6.4251100000e-05     1     4     8     8
-6.7872240000e-03     1     4     8     9
-5.2787239000e-03     1     4     8    10
-4.1004336000e-03     1     4     8    11
-2.7499210000e-04     1     4     8    12
-1.1365146000e-03     1     4     8    13
-2.2167100000e-04     1     4     9     1
-4.3058000000e-05     1     4     9     2
-1.5000000000e-09     1     4     9     3
-1.3074000000e-06     1     4     9     5
 2.6326600000e-05     1     4     9     6
-2.7539287000e-03     1     4     9     7
-4.8416722000e-03     1     4     9     8
 8.0066800000e-05     1     4     9     9
 3.0430000000e-06     1     4     9    10
 2.3896000000e-05     1     4     9    11
-1.0619070000e-04     1     4     9    12
-2.9191139000e-03     1     4     9    13
-3.9539500000e-05     1     4    10     1
-4.0926000000e-06     1     4    10     2
-3.2560000000e-07     1     4    10     3
 2.1630000000e-07     1     4    10     5
-8.2371000000e-06     1     4    10     6
-4.3659915000e-03     1     4    10     7
 5.3822763000e-03     1     4    10     8
-8.5512000000e-06     1     4    10     9
 8.8274200000e-05     1     4    10    10
-7.1711700000e-05     1     4    10    11
 3.6934433000e-03     1     4    10    12
 1.3154856000e-03     1     4    10    13
-5.4501680000e-04     1     4    11     1
-5.1014200000e-05     1     4    11     2
 1.1900000000e-07     1     4    11     3
-8.3890000000e-07     1     4    11     5
 3.8551100000e-05     1     4    11     6
 5.1791998000e-03     1     4    11     7
 3.2507000000e-03     1     4    11     8
-1.3828370000e-04     1     4    11     9
 6.2583800000e-05     1     4    11    10
 9.6091000000e-05     1     4    11    11
-1.5586258000e-03     1     4    11    12
 3.0731910000e-03     1     4    11    13
 1.5480553000e-03     1     4    12     1
 1.4504110000e-04     1     4    12     2
 3.6190000000e-07     1     4    12     3
-4.1960000000e-07     1     4    12     5
-1.0737590000e-04     1     4    12     6
 8.0360800000e-05     1     4    12     7
 6.2332000000e-06     1     4    12     8
 3.7354760000e-04     1     4    12     9
-2.5647877000e-03     1     4    12    10
 1.0441620000e-03     1     4    12    11
 8.6150900000e-05     1     4    12    12
 1.7706630000e-04     1     4    12    13
 4.2748512400e-02     1     4    13     1
 4.0097345000e-03     1     4    13     2
-3.6100000000e-08     1     4    13     3
-2.1429000000e-06     1     4    13     5
-2.9532249000e-03     1     4    13     6
-2.4731700000e-05     1     4    13     7
-1.2524940000e-04     1     4    13     8
 1.0296722400e-02     1     4    13     9
-1.2637084000e-03     1     4    13    10
-2.9410870000e-03     1     4    13    11
-1.3053270000e-04     1     4    13    12
 3.2389170000e-04     1     4    13    13
 1.1226521600e-02     1     5     2     1
 2.8262720200e-02     1     5     2     2
 2.1690000000e-07     1     5     2     3
 1.3681000000e-06     1     5     2     4
-5.0345817000e-03     1     5     2     6
 3.9691600000e-05     1     5     2     7
 9.2683200000e-05     1     5     2     8
 4.0289525800e-02     1     5     2     9
-3.8289000000e-05     1     5     2    10
-2.0468200000e-05     1     5     2    11
-5.0376900000e-05     1     5     2    12
-2.9478630000e-04     1     5     2    13
-6.3154000000e-06     1     5     3     1
-1.1905000000e-06     1     5     3     2
 2.7166542800e-02     1     5     3     3
 1.0000000000e-10     1     5     3     4
-8.7923000000e-06     1     5     3     6
-9.8393220000e-03     1     5     3     7
 5.6010519000e-03     1     5     3     8
 4.7451000000e-06     1     5     3     9
-1.2411900000e-04     1     5     3    10
 7.6126180000e-04     1     5     3    11
-3.9612028200e-02     1     5     3    12
 1.5304746000e-03     1     5     3    13
-3.7374300000e-05     1     5     4     1
-6.9102000000e-06     1     5     4     2
 2.0000000000e-09     1     5     4     3
 2.7166525400e-02     1     5     4     4
 3.6538700000e-05     1     5     4     6
 5.6031728000e-03     1     5     4     7
 9.8423756000e-03     1     5     4     8
 1.5469900000e-05     1     5     4     9
-3.3306400000e-05     1     5     4    10
 3.9941420000e-04     1     5     4    11
-1.4273155000e-03     1     5     4    12
-3.9328016700e-02     1     5     4    13
-1.6744942890e-01     1     5     5     1
-9.6502289700e-02     1     5     5     2
-1.4768100000e-05     1     5     5     3
-8.4312600000e-05     1     5     5     4
 3.4276304700e-02     1     5     5     6
-4.4848500000e-05     1     5     5     7
-1.6502100000e-05     1     5     5     8
 1.3347754000e-03     1     5     5     9
-8.0196380000e-04     1     5     5    10
-3.1341330000e-04     1     5     5    11
-1.0448656000e-03     1     5     5    12
-5.7729811000e-03     1     5     5    13
-5.9964950000e-03     1     5     6     1
 1.2030620000e-03     1     5     6     2
-5.6790000000e-07     1     5     6     3
 3.9350000000e-07     1     5     6     4
 2.6408683100e-02     1     5     6     6
-1.2200000000e-06     1     5     6     7
-1.7510800000e-05     1     5     6     8
-2.1704147700e-02     1     5     6     9
 1.5776000000e-06     1     5     6    10
 3.5255000000e-06     1     5     6    11
-1.1115800000e-05     1     5     6    12
 2.1818600000e-05     1     5     6    13
-6.1223200000e-05     1     5     7     1
-1.4176400000e-05     1     5     7     2
-4.0823050000e-04     1     5     7     3
 2.3163870000e-04     1     5     7     4
 1.9058900000e-05     1     5     7     6
 3.0347923300e-02     1     5     7     7
 5.4600000000e-07     1     5     7     8
 1.9477000000e-05     1     5     7     9
-1.7244700000e-05     1     5     7    10
 9.9324900000e-05     1     5     7    11
-8.8635658000e-03     1     5     7    12
 5.4672943000e-03     1     5     7    13
-1.8485370000e-04     1     5     8     1
-3.5430500000e-05     1     5     8     2
 2.3165840000e-04     1     5     8     3
 4.0827230000e-04     1     5     8     4
 3.9738300000e-05     1     5     8     6
-3.9130000000e-07     1     5     8     7
 3.0348171000e-02     1     5     8     8
-1.7739300000e-05     1     5     8     9
 1.2500800000e-05     1     5     8    10
-1.7179070000e-04     1     5     8    11
 5.4747084000e-03     1     5     8    12
 8.7934121000e-03     1     5     8    13
-7.7522288700e-02     1     5     9     1
-1.5553571400e-02     1     5     9     2
 2.2340000000e-07     1     5     9     3
 1.3074000000e-06     1     5     9     4
 7.0782084000e-03     1     5     9     6
 8.4290000000e-07     1     5     9     7
 3.2188000000e-05     1     5     9     8
 2.7482090400e-02     1     5     9     9
-9.7322800000e-05     1     5     9    10
-3.7176000000e-05     1     5     9    11
-1.5084400000e-04     1     5     9    12
-8.3040710000e-04     1     5     9    13
 4.7889260000e-04     1     5    10     1
 1.8505500000e-05     1     5    10     2
-3.8100000000e-07     1     5    10     3
-2.1630000000e-07     1     5    10     4
-5.6359700000e-05     1     5    10     6
 1.5853100000e-05     1     5    10     7
-1.5965000000e-05     1     5    10     8
 9.5262000000e-05     1     5    10     9
 2.9157700400e-02     1     5    10    10
 2.9700000000e-08     1     5    10    11
-1.2798500000e-05     1     5    10    12
-1.7903000000e-06     1     5    10    13
 1.9691870000e-04     1     5    11     1
 9.2857000000e-06     1     5    11     2
 2.2628000000e-06     1     5    11     3
 8.3890000000e-07     1     5    11     4
-2.3363500000e-05     1     5    11     6
-7.5551000000e-05     1     5    11     7
 1.1411780000e-04     1     5    11     8
 3.7532600000e-05     1     5    11     9
-3.6810000000e-07     1     5    11    10
 2.9157341600e-02     1     5    11    11
 2.3857800000e-05     1     5    11    12
 2.0534400000e-05     1     5    11    13
 6.2917500000e-04     1     5    12     1
 2.3088500000e-05     1     5    12     2
 8.3480000000e-07     1     5    12     3
 4.1960000000e-07     1     5    12     4
-6.6669400000e-05     1     5    12     6
 4.5752674000e-03     1     5    12     7
-2.8293566000e-03     1     5    12     8
 1.0891510000e-04     1     5    12     9
 4.8974000000e-06     1     5    12    10
 1.4915900000e-05     1     5    12    11
 2.8733891900e-02     1     5    12    12
 7.5660000000e-07     1     5    12    13
 3.5021003000e-03     1     5    13     1
 1.3628530000e-04     1     5    13     2
-4.4010000000e-07     1     5    13     3
 2.1429000000e-06     1     5    13     4