&FCI NORB= 13,NELEC=  2,MS2=0,
 ORBSYM=1,1,1,1,1,1,1,1,1,1,1,1,1
 ISYM=1,
&END
 1.2744995790e-01     1     1     2     2
 2.2524000000e-06     1     1     2     3
 2.2293000000e-06     1     1     2     4
-9.4965176000e-03     1     1     2     5
 9.6423891100e-02     1     1     2     6
-1.6497090000e-04     1     1     2     7
 7.6620000000e-07     1     1     2     8
 1.9385387500e-02     1     1     2     9
 3.5642830000e-04     1     1     2    10
 1.2385930000e-04     1     1     2    11
 8.2205600000e-05     1     1     2    12
-9.1851400000e-05     1     1     2    13
 2.2524000000e-06     1     1     3     2
 1.5741960010e-01     1     1     3     3
-6.0000000000e-10     1     1     3     4
-3.7126000000e-06     1     1     3     5
-6.8768300000e-05     1     1     3     6
-4.1729654000e-02     1     1     3     7
 6.1114149100e-02     1     1     3     8
-2.6019600000e-05     1     1     3     9
-1.6462570000e-04     1     1     3    10
 1.3073150000e-04     1     1     3    11
-6.8062256000e-03     1     1     3    12
 3.9643232000e-02     1     1     3    13
 2.2293000000e-06     1     1     4     2
-6.0000000000e-10     1     1     4     3
 1.5741923110e-01     1     1     4     4
-3.9122000000e-06     1     1     4     5
 1.0462160000e-04     1     1     4     6
 6.1118519600e-02     1     1     4     7
 4.1728657500e-02     1     1     4     8
 5.6523500000e-05     1     1     4     9
 4.3080780000e-04     1     1     4    10
-1.3280440000e-04     1     1     4    11
-3.9638291100e-02     1     1     4    12
-6.7971217000e-03     1     1     4    13
-9.4965176000e-03     1     1     5     2
-3.7126000000e-06     1     1     5     3
-3.9122000000e-06     1     1     5     4
 1.7867840800e-01     1     1     5     5
-1.0808689800e-02     1     1     5     6
 1.8717900000e-05     1     1     5     7
 2.3297500000e-05     1     1     5     8
 8.3143036500e-02     1     1     5     9
 1.1870239000e-03     1     1     5    10
 4.7301670000e-04     1     1     5    11
 1.5847410000e-04     1     1     5    12
 2.6114900000e-05     1     1     5    13
 9.6423891100e-02     1     1     6     2
-6.8768300000e-05     1     1     6     3
 1.0462160000e-04     1     1     6     4
-1.0808689800e-02     1     1     6     5
 2.2517523120e-01     1     1     6     6
-1.1659100000e-05     1     1     6     7
 7.7340000000e-07     1     1     6     8
 5.1410481000e-03     1     1     6     9
 4.5504100000e-05     1     1     6    10
 2.5315900000e-05     1     1     6    11
-1.6419100000e-05     1     1     6    12
 2.5378500000e-05     1     1     6    13
-1.6497090000e-04     1     1     7     2
-4.1729654000e-02     1     1     7     3
 6.1118519600e-02     1     1     7     4
 1.8717900000e-05     1     1     7     5
-1.1659100000e-05     1     1     7     6
 2.2773907640e-01     1     1     7     7
-4.4500000000e-08     1     1     7     8
 1.1799000000e-06     1     1     7     9
 5.9914400000e-05     1     1     7    10
-2.3974700000e-05     1     1     7    11
-4.2889450000e-03     1     1     7    12
-4.1513717000e-03     1     1     7    13
 7.6620000000e-07     1     1     8     2
 6.1114149100e-02     1     1     8     3
 4.1728657500e-02     1     1     8     4
 2.3297500000e-05     1     1     8     5
 7.7340000000e-07     1     1     8     6
-4.4500000000e-08     1     1     8     7
 2.2773346180e-01     1     1     8     8
 4.8571000000e-06     1     1     8     9
 1.4570100000e-05     1     1     8    10
 4.6966000000e-06     1     1     8    11
-4.1529559000e-03     1     1     8    12
 4.2928326000e-03     1     1     8    13
 1.9385387500e-02     1     1     9     2
-2.6019600000e-05     1     1     9     3
 5.6523500000e-05     1     1     9     4
 8.3143036500e-02     1     1     9     5
 5.1410481000e-03     1     1     9     6
 1.1799000000e-06     1     1     9     7
 4.8571000000e-06     1     1     9     8
 2.4766581400e-01     1     1     9     9
 3.4342680000e-04     1     1     9    10
 1.4901030000e-04     1     1     9    11
 1.4281800000e-05     1     1     9    12
 6.7114600000e-05     1     1     9    13
 3.5642830000e-04     1     1    10     2
-1.6462570000e-04     1     1    10     3
 4.3080780000e-04     1     1    10     4
 1.1870239000e-03     1     1    10     5
 4.5504100000e-05     1     1    10     6
 5.9914400000e-05     1     1    10     7
 1.4570100000e-05     1     1    10     8
 3.4342680000e-04     1     1    10     9
 2.0502397820e-01     1     1    10    10
 1.9100000000e-06     1     1    10    11
-5.9706200000e-05     1     1    10    12
-3.6171600000e-05     1     1    10    13
 1.2385930000e-04     1     1    11     2
 1.3073150000e-04     1     1    11     3
-1.3280440000e-04     1     1    11     4
 4.7301670000e-04     1     1    11     5
 2.5315900000e-05     1     1    11     6
-2.3974700000e-05     1     1    11     7
 4.6966000000e-06     1     1    11     8
 1.4901030000e-04     1     1    11     9
 1.9100000000e-06     1     1    11    10
 2.0501761370e-01     1     1    11    11
 1.6572600000e-05     1     1    11    12
 2.3618900000e-05     1     1    11    13
 8.2205600000e-05     1     1    12     2
-6.8062256000e-03     1     1    12     3
-3.9638291100e-02     1     1    12     4
 1.5847410000e-04     1     1    12     5
-1.6419100000e-05     1     1    12     6
-4.2889450000e-03     1     1    12     7
-4.1529559000e-03     1     1    12     8
 1.4281800000e-05     1     1    12     9
-5.9706200000e-05     1     1    12    10
 1.6572600000e-05     1     1    12    11
 2.1665910340e-01     1     1    12    12
-1.3174000000e-06     1     1    12    13
-9.1851400000e-05     1     1    13     2
 3.9643232000e-02     1     1    13     3
-6.7971217000e-03     1     1    13     4
 2.6114900000e-05     1     1    13     5
 2.5378500000e-05     1     1    13     6
-4.1513717000e-03     1     1    13     7
 4.2928326000e-03     1     1    13     8
 6.7114600000e-05     1     1    13     9
-3.6171600000e-05     1     1    13    10
 2.3618900000e-05     1     1    13    11
-1.3174000000e-06     1     1    13    12
 2.1666216910e-01     1     1    13    13
-1.2744995790e-01     1     2     2     1
 5.1071000000e-06     1     2     2     3
 5.0163000000e-06     1     2     2     4
-2.1282504400e-02     1     2     2     5
 5.9704558500e-02     1     2     2     6
-1.0273040000e-04     1     2     2     7
 6.9020000000e-07     1     2     2     8
 4.1102428000e-03     1     2     2     9
 1.2572240000e-04     1     2     2    10
 3.4655100000e-05     1     2     2    11
 4.5931700000e-05     1     2     2    12
-8.1637200000e-05     1     2     2    13
-2.2524000000e-06     1     2     3     1
 9.6291901500e-02     1     2     3     3
-9.7000000000e-09     1     2     3     4
-4.4160000000e-07     1     2     3     5
-5.2427200000e-05     1     2     3     6
-3.0611604700e-02     1     2     3     7
 4.4831463700e-02     1     2     3     8
-1.6554800000e-05     1     2     3     9
-7.1547600000e-05     1     2     3    10
 5.6865700000e-05     1     2     3    11
-2.9945122000e-03     1     2     3    12
 1.7431585600e-02     1     2     3    13
-2.2293000000e-06     1     2     4     1
 8.7000000000e-09     1     2     4     3
 9.6291781600e-02     1     2     4     4
-5.6430000000e-07     1     2     4     5
 7.4695600000e-05     1     2     4     6
 4.4833511000e-02     1     2     4     7
 3.0611049400e-02     1     2     4     8
 2.1815500000e-05     1     2     4     9
 1.8759110000e-04     1     2     4    10
-5.7374000000e-05     1     2     4    11
-1.7428044000e-02     1     2     4    12
-2.9882271000e-03     1     2     4    13
 9.4965176000e-03     1     2     5     1
-6.4290000000e-07     1     2     5     3
-6.7760000000e-07     1     2     5     4
 1.0095276280e-01     1     2     5     5
 4.8642820000e-04     1     2     5     6
-5.1160000000e-07     1     2     5     7
 1.7725200000e-05     1     2     5     8
 5.5966028600e-02     1     2     5     9
 7.2991470000e-04     1     2     5    10
 3.0389010000e-04     1     2     5    11
 7.3075000000e-05     1     2     5    12
 8.3413800000e-05     1     2     5    13
-9.6423891100e-02     1     2     6     1
-1.3609200000e-05     1     2     6     3
 1.9536000000e-05     1     2     6     4
-5.3562300000e-05     1     2     6     5
 1.0924193940e-01     1     2     6     6
-1.0158600000e-05     1     2     6     7
 3.9750000000e-07     1     2     6     8
-1.3538820000e-04     1     2     6     9
 7.1344000000e-06     1     2     6    10
 3.8473000000e-06     1     2     6    11
-6.5501000000e-06     1     2     6    12
-2.7231000000e-06     1     2     6    13
 1.6497090000e-04     1     2     7     1
-7.8917861000e-03     1     2     7     3
 1.1560819600e-02     1     2     7     4
 2.6380000000e-07     1     2     7     5
-1.0216800000e-05     1     2     7     6
 1.0920582110e-01     1     2     7     7
 7.3800000000e-07     1     2     7     8
 5.3339000000e-06     1     2     7     9
 4.0574700000e-05     1     2     7    10
-1.6464600000e-05     1     2     7    11
-2.6992587000e-03     1     2     7    12
-2.6134077000e-03     1     2     7    13
-7.6620000000e-07     1     2     8     1
 1.1560314900e-02     1     2     8     3
 7.8917726000e-03     1     2     8     4
 4.3425000000e-06     1     2     8     5
 2.7520000000e-07     1     2     8     6
-6.5650000000e-07     1     2     8     7
 1.0920229980e-01     1     2     8     8
 2.7860000000e-06     1     2     8     9
 9.9548000000e-06     1     2     8    10
 3.2001000000e-06     1     2     8    11
-2.6145448000e-03     1     2     8    12
 2.7017501000e-03     1     2     8    13
-1.9385387500e-02     1     2     9     1
-4.4151000000e-06     1     2     9     3
 4.3763000000e-06     1     2     9     4
 1.5340312300e-02     1     2     9     5
 3.4925589000e-03     1     2     9     6
 1.1633000000e-06     1     2     9     7
 4.4377000000e-06     1     2     9     8
 1.2469545390e-01     1     2     9     9
 3.0663140000e-04     1     2     9    10
 1.3113640000e-04     1     2     9    11
 1.6113000000e-05     1     2     9    12
 5.1408400000e-05     1     2     9    13
-3.5642830000e-04     1     2    10     1
-1.6141900000e-05     1     2    10     3
 4.2220600000e-05     1     2    10     4
 2.0041350000e-04     1     2    10     5
 4.5850400000e-05     1     2    10     6
 5.5959900000e-05     1     2    10     7
 1.3558200000e-05     1     2    10     8
 3.1533650000e-04     1     2    10     9
 9.2196584700e-02     1     2    10    10
 1.4520000000e-06     1     2    10    11
-5.2326600000e-05     1     2    10    12
-3.1893500000e-05     1     2    10    13
-1.2385930000e-04     1     2    11     1
 1.2794600000e-05     1     2    11     3
-1.2866200000e-05     1     2    11     4
 8.3128600000e-05     1     2    11     5
 2.1550200000e-05     1     2    11     6
-2.2868800000e-05     1     2    11     7
 4.3049000000e-06     1     2    11     8
 1.3263080000e-04     1     2    11     9
 1.4237000000e-06     1     2    11    10
 9.2187890500e-02     1     2    11    11
 1.4651900000e-05     1     2    11    12
 2.0841200000e-05     1     2    11    13
-8.2205600000e-05     1     2    12     1
-6.7569690000e-04     1     2    12     3
-3.9342890000e-03     1     2    12     4
 2.1032200000e-05     1     2    12     5
-7.1173000000e-06     1     2    12     6
-3.7071681000e-03     1     2    12     7
-3.5898581000e-03     1     2    12     8
 2.1974800000e-05     1     2    12     9
-5.2669800000e-05     1     2    12    10
 1.4779600000e-05     1     2    12    11
 1.0050277310e-01     1     2    12    12
-7.5690000000e-07     1     2    12    13
 9.1851400000e-05     1     2    13     1
 3.9351323000e-03     1     2    13     3
-6.7416060000e-04     1     2    13     4
 2.1343000000e-05     1     2    13     5
 9.2766000000e-06     1     2    13     6
-3.5888192000e-03     1     2    13     7
 3.7095710000e-03     1     2    13     8
 4.1060800000e-05     1     2    13     9
-3.2050500000e-05     1     2    13    10
 2.0835500000e-05     1     2    13    11
-1.2951000000e-06     1     2    13    12
 1.0050462580e-01     1     2    13    13
-2.2524000000e-06     1     3     2     1
-5.1071000000e-06     1     3     2     2
-1.8400000000e-08     1     3     2     4
 2.0130000000e-07     1     3     2     5
-3.8818000000e-05     1     3     2     6
-2.2719818600e-02     1     3     2     7
 3.3271148800e-02     1     3     2     8
-1.2139700000e-05     1     3     2     9
-5.5405700000e-05     1     3     2    10
 4.4071100000e-05     1     3     2    11
-2.3188153000e-03     1     3     2    12
 1.3496453300e-02     1     3     2    13
-1.5741960010e-01     1     3     3     1
-9.6291901500e-02     1     3     3     2
 4.5949000000e-06     1     3     3     4
-1.9897915900e-02     1     3     3     5
-1.6891605300e-02     1     3     3     6
 2.5736900000e-05     1     3     3     7
 6.0569000000e-06     1     3     3     8
-6.6886304000e-03     1     3     3     9
 3.9259278700e-02     1     3     3    10
-9.6964190000e-04     1     3     3    11
 3.2107010000e-04     1     3     3    12
 3.3781700000e-04     1     3     3    13
 6.0000000000e-10     1     3     4     1
-8.7000000000e-09     1     3     4     2
-4.6858000000e-06     1     3     4     4
 3.1000000000e-09     1     3     4     5
 9.6600000000e-08     1     3     4     6
 3.4440000000e-07     1     3     4     7
 4.0365000000e-06     1     3     4     8
-2.4055650000e-04     1     3     4     9
 9.3362570000e-04     1     3     4    10
 4.0054334300e-02     1     3     4    11
-8.9903200000e-05     1     3     4    12
-1.5336320000e-04     1     3     4    13
 3.7126000000e-06     1     3     5     1
 6.4290000000e-07     1     3     5     2
-3.6000000000e-09     1     3     5     4
-5.1740000000e-06     1     3     5     5
 1.7910800000e-05     1     3     5     6
 7.1725031000e-03     1     3     5     7
-1.0504076300e-02     1     3     5     8
-8.7450000000e-06     1     3     5     9
-1.5321330000e-04     1     3     5    10
 1.3862900000e-04     1     3     5    11
-6.8011049000e-03     1     3     5    12
 3.9651164500e-02     1     3     5    13
 6.8768300000e-05     1     3     6     1
 1.3609200000e-05     1     3     6     2
 1.1600000000e-08     1     3     6     4
-8.2950000000e-07     1     3     6     5
 9.9469000000e-06     1     3     6     6
-3.4954301000e-03     1     3     6     7
 5.1160040000e-03     1     3     6     8
-1.1414800000e-05     1     3     6     9
-1.9165500000e-05     1     3     6    10
 1.9345500000e-05     1     3     6    11
-5.8199160000e-04     1     3     6    12
 3.3905860000e-03     1     3     6    13
 4.1729654000e-02     1     3     7     1
 7.8917861000e-03     1     3     7     2
 7.2300000000e-08     1     3     7     4
-3.5378250000e-04     1     3     7     5
 1.0314937400e-02     1     3     7     6
-1.8073100000e-05     1     3     7     7
-8.1401000000e-06     1     3     7     8
-2.7782319000e-03     1     3     7     9
-3.8598117000e-03     1     3     7    10
 5.3079285000e-03     1     3     7    11
-4.4101300000e-05     1     3     7    12
-9.6532700000e-05     1     3     7    13
-6.1114149100e-02     1     3     8     1
-1.1560314900e-02     1     3     8     2
-2.2400000000e-08     1     3     8     4
 5.1906500000e-04     1     3     8     5
-1.5108059300e-02     1     3     8     6
 2.6693700000e-05     1     3     8     7
-5.1904000000e-06     1     3     8     8
 3.9738595000e-03     1     3     8     9
 5.8479177000e-03     1     3     8    10
 3.4062664000e-03     1     3     8    11
 3.6604300000e-05     1     3     8    12
 8.5298700000e-05     1     3     8    13
 2.6019600000e-05     1     3     9     1
 4.4151000000e-06     1     3     9     2
 4.3000000000e-09     1     3     9     4
 5.4300000000e-08     1     3     9     5
-2.8430000000e-06     1     3     9     6
-3.0601204000e-03     1     3     9     7
 4.5444500000e-03     1     3     9     8
-3.8327000000e-06     1     3     9     9
-9.0157000000e-06     1     3     9    10
 1.0946400000e-05     1     3     9    11
-5.7121390000e-04     1     3     9    12
 3.2366788000e-03     1     3     9    13
 1.6462570000e-04     1     3    10     1
 1.6141900000e-05     1     3    10     2
 1.2000000000e-08     1     3    10     4
-1.7087000000e-06     1     3    10     5
 1.9115500000e-05     1     3    10     6
 3.4504259000e-03     1     3    10     7
-5.4593283000e-03     1     3    10     8
 5.3219400000e-05     1     3    10     9
-5.9912000000e-06     1     3    10    10
 2.0922300000e-05     1     3    10    11
 5.4834300000e-04     1     3    10    12
-2.7448429000e-03     1     3    10    13
-1.3073150000e-04     1     3    11     1
-1.2794600000e-05     1     3    11     2
-2.1700000005e-08     1     3    11     4
 1.2856000000e-06     1     3    11     5
-2.0844700000e-05     1     3    11     6
-6.4915637000e-03     1     3    11     7
-4.2710338000e-03     1     3    11     8
-4.9554400000e-05     1     3    11     9
-2.5960600000e-05     1     3    11    10
-3.0274000000e-06     1     3    11    11
 3.4712659000e-03     1     3    11    12
 6.9644080000e-04     1     3    11    13
 6.8062256000e-03     1     3    12     1
 6.7569690000e-04     1     3    12     2
-2.1470000000e-07     1     3    12     4
-9.2278200000e-05     1     3    12     5
 5.2080830000e-04     1     3    12     6
 4.2021900000e-05     1     3    12     7
-3.5562100000e-05     1     3    12     8
 2.0863248000e-03     1     3    12     9
-5.2009200000e-04     1     3    12    10
-2.4216431000e-03     1     3    12    11
-7.9216000000e-06     1     3    12    12
 6.8339000000e-06     1     3    12    13
-3.9643232000e-02     1     3    13     1
-3.9351323000e-03     1     3    13     2
-1.6350000000e-07     1     3    13     4
 5.2788330000e-04     1     3    13     5
-3.0260796000e-03     1     3    13     6
 3.4358200000e-05     1     3    13     7
 2.8787000000e-06     1     3    13     8
-1.2033000300e-02     1     3    13     9
 2.6635494000e-03     1     3    13    10
-5.4154320000e-04     1     3    13    11
 1.2972600000e-05     1     3    13    12
-3.8816900000e-05     1     3    13    13
-2.2293000000e-06     1     4     2     1
-5.0163000000e-06     1     4     2     2
 1.8400000000e-08     1     4     2     3
 1.1330000000e-07     1     4     2     5
 5.5159600000e-05     1     4     2     6
 3.3272691400e-02     1     4     2     7
 2.2719276800e-02     1     4     2     8
 1.7439200000e-05     1     4     2     9
 1.4537050000e-04     1     4     2    10
-4.4507800000e-05     1     4     2    11
-1.3493755000e-02     1     4     2    12
-2.3140665000e-03     1     4     2    13
 6.0000000000e-10     1     4     3     1
 9.7000000000e-09     1     4     3     2
-4.5949000000e-06     1     4     3     3
 6.7000000000e-09     1     4     3     5
 8.5000000000e-08     1     4     3     6
 2.7210000000e-07     1     4     3     7
 4.0589000000e-06     1     4     3     8
-2.4056080000e-04     1     4     3     9
 9.3361370000e-04     1     4     3    10
 4.0054356000e-02     1     4     3    11
-8.9688500000e-05     1     4     3    12
-1.5319970000e-04     1     4     3    13
-1.5741923110e-01     1     4     4     1
-9.6291781600e-02     1     4     4     2
 4.6858000000e-06     1     4     4     3
-1.9897931200e-02     1     4     4     5
-1.6891361100e-02     1     4     4     6
 3.4170900000e-05     1     4     4     7
 5.1629000000e-06     1     4     4     8
-5.5827710000e-03     1     4     4     9
-3.9619105500e-02     1     4     4    10
 8.7302420000e-04     1     4     4    11
-4.4442710000e-04     1     4     4    12
-1.1136760000e-04     1     4     4    13
 3.9122000000e-06     1     4     5     1
 6.7760000000e-07     1     4     5     2
 3.6000000000e-09     1     4     5     3
-5.0518000000e-06     1     4     5     5
-1.5413900000e-05     1     4     5     6
-1.0499829200e-02     1     4     5     7
-7.1736874000e-03     1     4     5     8
 6.8816000000e-05     1     4     5     9
 4.1572410000e-04     1     4     5    10
-1.2249260000e-04     1     4     5    11
-3.9650883900e-02     1     4     5    12
-6.8005620000e-03     1     4     5    13
-1.0462160000e-04     1     4     6     1
-1.9536000000e-05     1     4     6     2
-1.1600000000e-08     1     4     6     3
 8.5490000000e-07     1     4     6     5
-2.5495200000e-05     1     4     6     6
 5.1169766000e-03     1     4     6     7
 3.4946643000e-03     1     4     6     8
 1.0001100000e-05     1     4     6     9
 2.2146500000e-05     1     4     6    10
-1.6063600000e-05     1     4     6    11
-3.3899177000e-03     1     4     6    12
-5.8039660000e-04     1     4     6    13
-6.1118519600e-02     1     4     7     1
-1.1560819600e-02     1     4     7     2
-7.2300000000e-08     1     4     7     3
 5.1907380000e-04     1     4     7     5
-1.5108026600e-02     1     4     7     6
 1.3569000000e-05     1     4     7     7
-5.0735000000e-06     1     4     7     8
 4.2604204000e-03     1     4     7     9
-5.8221460000e-03     1     4     7    10
-3.3731847000e-03     1     4     7    11
-7.0306400000e-05     1     4     7    12
 4.2314100000e-05     1     4     7    13
-4.1728657500e-02     1     4     8     1
-7.8917726000e-03     1     4     8     2
 2.2400000000e-08     1     4     8     3
 3.5379390000e-04     1     4     8     5
-1.0315256800e-02     1     4     8     6
 1.8578100000e-05     1     4     8     7
-5.2658000000e-06     1     4     8     8
 2.8442247000e-03     1     4     8     9
-3.8420781000e-03     1     4     8    10
 5.3302159000e-03     1     4     8    11
-7.3648900000e-05     1     4     8    12
-7.1346000000e-06     1     4     8    13
-5.6523500000e-05     1     4     9     1
-4.3763000000e-06     1     4     9     2
-4.3000000000e-09     1     4     9     3
 1.3403000000e-06     1     4     9     5
 3.4922000000e-06     1     4     9     6
 4.4041192000e-03     1     4     9     7
 3.0481504000e-03     1     4     9     8
-1.5231300000e-05     1     4     9     9
 1.6406400000e-05     1     4     9    10
-7.1731000000e-06     1     4     9    11
-3.1902575000e-03     1     4     9    12
-5.3292840000e-04     1     4     9    13
-4.3080780000e-04     1     4    10     1
-4.2220600000e-05     1     4    10     2
-1.2000000000e-08     1     4    10     3
 4.3693000000e-06     1     4    10     5
-2.7010100000e-05     1     4    10     6
 5.5682352000e-03     1     4    10     7
 3.5241746000e-03     1     4    10     8
-1.3150050000e-04     1     4    10     9
-7.7248000000e-06     1     4    10    10
-1.9859100000e-05     1     4    10    11
-2.9044552000e-03     1     4    10    12
-5.7530380000e-04     1     4    10    13
 1.3280440000e-04     1     4    11     1
 1.2866200000e-05     1     4    11     2
 2.1700000005e-08     1     4    11     3
-1.4106000000e-06     1     4    11     5
 1.7551300000e-05     1     4    11     6
 4.3192610000e-03     1     4    11     7
-6.4582871000e-03     1     4    11     8
 4.3516600000e-05     1     4    11     9
 2.3352400000e-05     1     4    11    10
-7.9316000000e-06     1     4    11    11
 6.4628560000e-04     1     4    11    12
-3.4806301000e-03     1     4    11    13
 3.9638291100e-02     1     4    12     1
 3.9342890000e-03     1     4    12     2
 2.1470000000e-07     1     4    12     3
-5.2783020000e-04     1     4    12     5
 3.0254227000e-03     1     4    12     6
 3.0694500000e-05     1     4    12     7
 4.5287300000e-05     1     4    12     8
 1.1926948700e-02     1     4    12     9
 2.9568580000e-03     1     4    12    10
-4.2040390000e-04     1     4    12    11
-1.9870000000e-06     1     4    12    12
 3.4262500000e-05     1     4    12    13
 6.7971217000e-03     1     4    13     1
 6.7416060000e-04     1     4    13     2
 1.6350000000e-07     1     4    13     3
-9.2228100000e-05     1     4    13     5
 5.1933300000e-04     1     4    13     6
 2.8204900000e-05     1     4    13     7
 5.2179800000e-05     1     4    13     8
 2.0216629000e-03     1     4    13     9
 5.6959490000e-04     1     4    13    10
 2.4428966000e-03     1     4    13    11
 1.4691700000e-05     1     4    13    12
 2.6350000000e-06     1     4    13    13
 9.4965176000e-03     1     5     2     1
 2.1282504400e-02     1     5     2     2
-2.0130000000e-07     1     5     2     3
-1.1330000000e-07     1     5     2     4
 5.3999050000e-04     1     5     2     6
-7.7540000000e-07     1     5     2     7
 1.3382700000e-05     1     5     2     8
 4.0625716300e-02     1     5     2     9
 5.2950120000e-04     1     5     2    10
 2.2076150000e-04     1     5     2    11
 5.2042800000e-05     1     5     2    12
 6.2070800000e-05     1     5     2    13
 3.7126000000e-06     1     5     3     1
 4.4160000000e-07     1     5     3     2
 1.9897915900e-02     1     5     3     3
-6.7000000000e-09     1     5     3     4
 1.8740300000e-05     1     5     3     6
 7.5262856000e-03     1     5     3     7
-1.1023141300e-02     1     5     3     8
-8.7993000000e-06     1     5     3     9
-1.5150460000e-04     1     5     3    10
 1.3734340000e-04     1     5     3    11
-6.7088267000e-03     1     5     3    12
 3.9123281200e-02     1     5     3    13
 3.9122000000e-06     1     5     4     1
 5.6430000000e-07     1     5     4     2
-3.1000000000e-09     1     5     4     3
 1.9897931200e-02     1     5     4     4
-1.6268800000e-05     1     5     4     6
-1.1018903000e-02     1     5     4     7
-7.5274813000e-03     1     5     4     8
 6.7475700000e-05     1     5     4     9
 4.1135480000e-04     1     5     4    10
-1.2108200000e-04     1     5     4    11
-3.9123053700e-02     1     5     4    12
-6.7083339000e-03     1     5     4    13
-1.7867840800e-01     1     5     5     1
-1.0095276280e-01     1     5     5     2
 5.1740000000e-06     1     5     5     3
 5.0518000000e-06     1     5     5     4
-3.5724713200e-02     1     5     5     6
 6.0481300000e-05     1     5     5     7
-1.1966500000e-05     1     5     5     8
 9.1545488000e-03     1     5     5     9
 3.5198480000e-04     1     5     5    10
 8.7233400000e-05     1     5     5    11
 1.3817880000e-04     1     5     5    12
-2.5759740000e-04     1     5     5    13
 1.0808689800e-02     1     5     6     1
 5.3562300000e-05     1     5     6     2
 8.2950000000e-07     1     5     6     3
-8.5490000000e-07     1     5     6     4
 1.9133006500e-02     1     5     6     6
 5.8822000000e-06     1     5     6     7
 1.6375000000e-06     1     5     6     8
 2.1766853900e-02     1     5     6     9
 2.3409700000e-04     1     5     6    10
 9.8733900000e-05     1     5     6    11
 9.5390000000e-06     1     5     6    12
 2.3712200000e-05     1     5     6    13
-1.8717900000e-05     1     5     7     1
-2.6380000000e-07     1     5     7     2
 3.5378250000e-04     1     5     7     3
-5.1907380000e-04     1     5     7     4
 5.1434000000e-06     1     5     7     6
 2.2566661600e-02     1     5     7     7
-7.3220000000e-07     1     5     7     8
-1.6887400000e-05     1     5     7     9
 1.0078910000e-04     1     5     7    10
-4.2311600000e-05     1     5     7    11
-7.5781224000e-03     1     5     7    12
-7.3340083000e-03     1     5     7    13
-2.3297500000e-05     1     5     8     1
-4.3425000000e-06     1     5     8     2
-5.1906500000e-04     1     5     8     3
-3.5379390000e-04     1     5     8     4
-5.7573000000e-06     1     5     8     6
 6.6640000000e-07     1     5     8     7
 2.2567062200e-02     1     5     8     8
 1.2913600000e-05     1     5     8     9
 2.5009500000e-05     1     5     8    10
 9.6216000000e-06     1     5     8    11
-7.3342192000e-03     1     5     8    12
 7.5790331000e-03     1     5     8    13
-8.3143036500e-02     1     5     9     1
-1.5340312300e-02     1     5     9     2
-5.4300000000e-08     1     5     9     3
-1.3403000000e-06     1     5     9     4
-8.0453450000e-03     1     5     9     6
 8.7879000000e-06     1     5     9     7
-3.2150000000e-06     1     5     9     8
 1.9065651500e-02     1     5     9     9
-3.5024100000e-05     1     5     9    10
-2.2946600000e-05     1     5     9    11
 1.6865400000e-05     1     5     9    12
-5.1996100000e-05     1     5     9    13
-1.1870239000e-03     1     5    10     1
-2.0041350000e-04     1     5    10     2
 1.7087000000e-06     1     5    10     3
-4.3693000000e-06     1     5    10     4
-1.5002570000e-04     1     5    10     6
-7.3527300000e-05     1     5    10     7
-1.8689800000e-05     1     5    10     8
-8.7088700000e-05     1     5    10     9
 2.2552120300e-02     1     5    10    10
-3.8200000000e-07     1     5    10    11
 1.3871500000e-05     1     5    10    12
 8.3816000000e-06     1     5    10    13
-4.7301670000e-04     1     5    11     1
-8.3128600000e-05     1     5    11     2
-1.2856000000e-06     1     5    11     3
 1.4106000000e-06     1     5    11     4
-5.9582400000e-05     1     5    11     6
 3.0728300000e-05     1     5    11     7
-8.1083000000e-06     1     5    11     8
-3.0532100000e-05     1     5    11     9
-1.9830000000e-07     1     5    11    10
 2.2553019100e-02     1     5    11    11
-3.2707000000e-06     1     5    11    12
-7.1133000000e-06     1     5    11    13
-1.5847410000e-04     1     5    12     1
-2.1032200000e-05     1     5    12     2
 9.2278200000e-05     1     5    12     3
 5.2783020000e-04     1     5    12     4
-1.2822900000e-05     1     5    12     6
 4.3276888000e-03     1     5    12     7
 4.1886948000e-03     1     5    12     8
-1.5300900000e-05     1     5    12     9
 1.5285600000e-05     1     5    12    10
-4.9384000000e-06     1     5    12    11
 2.1614218800e-02     1     5    12    12
-1.4910000000e-07     1     5    12    13
-2.6114900000e-05     1     5    13     1
-2.1343000000e-05     1     5    13     2
-5.2788330000e-04     1     5    13     3
 9.2228100000e-05     1     5    13     4