&FCI NORB= 13,NELEC=  2,MS2=0,
 ORBSYM=1,1,1,1,1,1,1,1,1,1,1,1,1
 ISYM=1,
&END
 1.0057292260e-01     1     1     2     2
 9.7778065000e-03     1     1     2     3
-2.2866410000e-04     1     1     2     4
 1.2434660000e-04     1     1     2     5
-8.4262893600e-02     1     1     2     6
-3.3276300000e-05     1     1     2     7
-8.6294000000e-06     1     1     2     8
-1.7146249500e-02     1     1     2     9
 5.5157100000e-05     1     1     2    10
 2.6053650000e-04     1     1     2    11
-2.3840570000e-03     1     1     2    12
-2.8664226000e-03     1     1     2    13
 9.7778065000e-03     1     1     3     2
 1.3404795770e-01     1     1     3     3
-7.1365800000e-05     1     1     3     4
 3.8783700000e-05     1     1     3     5
 1.8761840000e-04     1     1     3     6
 1.4802201000e-03     1     1     3     7
 1.0444946000e-03     1     1     3     8
 6.1131783100e-02     1     1     3     9
-2.6121530000e-04     1     1     3    10
-1.2139741000e-03     1     1     3    11
 1.2297289800e-02     1     1     3    12
 1.2927754600e-02     1     1     3    13
-2.2866410000e-04     1     1     4     2
-7.1365800000e-05     1     1     4     3
 1.3090342690e-01     1     1     4     4
-9.4880000000e-07     1     1     4     5
-1.0950000000e-07     1     1     4     6
 2.7004805800e-02     1     1     4     7
 5.6976116700e-02     1     1     4     8
-1.5323797000e-03     1     1     4     9
-4.1458870000e-04     1     1     4    10
 3.6447800000e-04     1     1     4    11
 4.5291080700e-02     1     1     4    12
-2.8195245000e-03     1     1     4    13
 1.2434660000e-04     1     1     5     2
 3.8783700000e-05     1     1     5     3
-9.4880000000e-07     1     1     5     4
 1.3090162470e-01     1     1     5     5
 4.5122000000e-06     1     1     5     6
-5.7020275200e-02     1     1     5     7
 2.7015307600e-02     1     1     5     8
 8.6551700000e-04     1     1     5     9
-2.7657460000e-04     1     1     5    10
 5.8495660000e-04     1     1     5    11
 1.3127730000e-04     1     1     5    12
 4.5142293900e-02     1     1     5    13
-8.4262893600e-02     1     1     6     2
 1.8761840000e-04     1     1     6     3
-1.0950000000e-07     1     1     6     4
 4.5122000000e-06     1     1     6     5
 1.8282629520e-01     1     1     6     6
-9.0132000000e-06     1     1     6     7
-4.7077000000e-06     1     1     6     8
-6.5364993000e-03     1     1     6     9
-2.8817000000e-06     1     1     6    10
-1.1621100000e-05     1     1     6    11
 3.3448990000e-04     1     1     6    12
 4.2009280000e-04     1     1     6    13
-3.3276300000e-05     1     1     7     2
 1.4802201000e-03     1     1     7     3
 2.7004805800e-02     1     1     7     4
-5.7020275200e-02     1     1     7     5
-9.0132000000e-06     1     1     7     6
 1.8147537700e-01     1     1     7     7
-1.8964000000e-06     1     1     7     8
-2.1082000000e-06     1     1     7     9
 1.4689800000e-05     1     1     7    10
-8.9851300000e-05     1     1     7    11
 4.8681391000e-03     1     1     7    12
-1.0388611900e-02     1     1     7    13
-8.6294000000e-06     1     1     8     2
 1.0444946000e-03     1     1     8     3
 5.6976116700e-02     1     1     8     4
 2.7015307600e-02     1     1     8     5
-4.7077000000e-06     1     1     8     6
-1.8964000000e-06     1     1     8     7
 1.8140964570e-01     1     1     8     8
-3.2183000000e-06     1     1     8     9
-1.0956570000e-04     1     1     8    10
 1.1474010000e-04     1     1     8    11
 1.0280224400e-02     1     1     8    12
 4.2452503000e-03     1     1     8    13
-1.7146249500e-02     1     1     9     2
 6.1131783100e-02     1     1     9     3
-1.5323797000e-03     1     1     9     4
 8.6551700000e-04     1     1     9     5
-6.5364993000e-03     1     1     9     6
-2.1082000000e-06     1     1     9     7
-3.2183000000e-06     1     1     9     8
 2.0445456520e-01     1     1     9     9
-3.9480400000e-05     1     1     9    10
-1.8839640000e-04     1     1     9    11
 1.9332193000e-03     1     1     9    12
 2.3424687000e-03     1     1     9    13
 5.5157100000e-05     1     1    10     2
-2.6121530000e-04     1     1    10     3
-4.1458870000e-04     1     1    10     4
-2.7657460000e-04     1     1    10     5
-2.8817000000e-06     1     1    10     6
 1.4689800000e-05     1     1    10     7
-1.0956570000e-04     1     1    10     8
-3.9480400000e-05     1     1    10     9
 1.7343053690e-01     1     1    10    10
 4.2700000000e-08     1     1    10    11
-7.5630100000e-05     1     1    10    12
-4.6288200000e-05     1     1    10    13
 2.6053650000e-04     1     1    11     2
-1.2139741000e-03     1     1    11     3
 3.6447800000e-04     1     1    11     4
 5.8495660000e-04     1     1    11     5
-1.1621100000e-05     1     1    11     6
-8.9851300000e-05     1     1    11     7
 1.1474010000e-04     1     1    11     8
-1.8839640000e-04     1     1    11     9
 4.2700000000e-08     1     1    11    10
 1.7343039670e-01     1     1    11    11
 5.8525000000e-06     1     1    11    12
 2.7311100000e-05     1     1    11    13
-2.3840570000e-03     1     1    12     2
 1.2297289800e-02     1     1    12     3
 4.5291080700e-02     1     1    12     4
 1.3127730000e-04     1     1    12     5
 3.3448990000e-04     1     1    12     6
 4.8681391000e-03     1     1    12     7
 1.0280224400e-02     1     1    12     8
 1.9332193000e-03     1     1    12     9
-7.5630100000e-05     1     1    12    10
 5.8525000000e-06     1     1    12    11
 1.8757187150e-01     1     1    12    12
 1.0816480000e-04     1     1    12    13
-2.8664226000e-03     1     1    13     2
 1.2927754600e-02     1     1    13     3
-2.8195245000e-03     1     1    13     4
 4.5142293900e-02     1     1    13     5
 4.2009280000e-04     1     1    13     6
-1.0388611900e-02     1     1    13     7
 4.2452503000e-03     1     1    13     8
 2.3424687000e-03     1     1    13     9
-4.6288200000e-05     1     1    13    10
 2.7311100000e-05     1     1    13    11
 1.0816480000e-04     1     1    13    12
 1.8758634780e-01     1     1    13    13
-1.0057292260e-01     1     2     2     1
-4.0740728000e-02     1     2     2     3
 9.6708080000e-04     1     2     2     4
-5.2547920000e-04     1     2     2     5
 5.5764731500e-02     1     2     2     6
-1.0401000000e-05     1     2     2     7
-8.0684000000e-06     1     2     2     8
-1.0017865100e-02     1     2     2     9
-1.6593500000e-05     1     2     2    10
-7.7778400000e-05     1     2     2    11
 7.2321200000e-04     1     2     2    12
 8.7487770000e-04     1     2     2    13
-9.7778065000e-03     1     2     3     1
-8.2965583400e-02     1     2     3     3
 6.4227600000e-05     1     2     3     4
-3.4886400000e-05     1     2     3     5
-1.3236969900e-02     1     2     3     6
-1.2501449000e-03     1     2     3     7
-8.8679410000e-04     1     2     3     8
-5.1969421300e-02     1     2     3     9
 6.8637800000e-05     1     2     3    10
 3.1749150000e-04     1     2     3    11
-3.2923221000e-03     1     2     3    12
-3.4036193000e-03     1     2     3    13
 2.2866410000e-04     1     2     4     1
 6.2304800000e-05     1     2     4     3
-8.0439460600e-02     1     2     4     4
 9.7850000000e-07     1     2     4     5
 3.1655910000e-04     1     2     4     6
-2.2991871700e-02     1     2     4     7
-4.8532169800e-02     1     2     4     8
 1.3057931000e-03     1     2     4     9
 1.0886010000e-04     1     2     4    10
-8.9100600000e-05     1     2     4    11
-1.2363845000e-02     1     2     4    12
 7.4948530000e-04     1     2     4    13
-1.2434660000e-04     1     2     5     1
-3.3852000000e-05     1     2     5     3
 7.4130000000e-07     1     2     5     4
-8.0438080100e-02     1     2     5     5
-1.7568940000e-04     1     2     5     6
 4.8547806700e-02     1     2     5     7
-2.3008675300e-02     1     2     5     8
-7.3338080000e-04     1     2     5     9
 7.3254800000e-05     1     2     5    10
-1.5152310000e-04     1     2     5    11
-4.8700700000e-05     1     2     5    12
-1.2286471600e-02     1     2     5    13
 8.4262893600e-02     1     2     6     1
-3.1012033000e-03     1     2     6     3
 7.5353300000e-05     1     2     6     4
-4.2322300000e-05     1     2     6     5
-9.0289502000e-02     1     2     6     6
 1.1111200000e-05     1     2     6     7
 4.7118000000e-06     1     2     6     8
 1.1317560000e-02     1     2     6     9
-1.8806000000e-06     1     2     6    10
-1.0423000000e-05     1     2     6    11
 1.1763400000e-05     1     2     6    12
 4.7687000000e-06     1     2     6    13
 3.3276300000e-05     1     2     7     1
-4.4744980000e-04     1     2     7     3
-8.2932497000e-03     1     2     7     4
 1.7515641800e-02     1     2     7     5
-2.8102000000e-06     1     2     7     6
-8.7122052600e-02     1     2     7     7
 1.6939000000e-06     1     2     7     8
-6.3388000000e-06     1     2     7     9
-7.7222000000e-06     1     2     7    10
 4.8041400000e-05     1     2     7    11
-2.3732485000e-03     1     2     7    12
 5.0576878000e-03     1     2     7    13
 8.6294000000e-06     1     2     8     1
-3.1784730000e-04     1     2     8     3
-1.7511052200e-02     1     2     8     4
-8.2995581000e-03     1     2     8     5
-7.8360000000e-07     1     2     8     6
 6.0770000000e-07     1     2     8     7
-8.7076276300e-02     1     2     8     8
-3.1388000000e-06     1     2     8     9
 6.1111500000e-05     1     2     8    10
-6.9421900000e-05     1     2     8    11
-5.0127174000e-03     1     2     8    12
-2.0717788000e-03     1     2     8    13
 1.7146249500e-02     1     2     9     1
-1.7787922600e-02     1     2     9     3
 4.4709570000e-04     1     2     9     4
-2.5137320000e-04     1     2     9     5
 1.4071618000e-03     1     2     9     6
-8.3249000000e-06     1     2     9     7
-5.0822000000e-06     1     2     9     8
-1.0066129610e-01     1     2     9     9
 3.4633800000e-05     1     2     9    10
 1.6459650000e-04     1     2     9    11
-1.5533704000e-03     1     2     9    12
-1.8981439000e-03     1     2     9    13
-5.5157100000e-05     1     2    10     1
 2.4519200000e-05     1     2    10     3
 3.5178900000e-05     1     2    10     4
 2.3889600000e-05     1     2    10     5
 1.2363400000e-05     1     2    10     6
-1.4200500000e-05     1     2    10     7
 1.1054940000e-04     1     2    10     8
 5.5949300000e-05     1     2    10     9
-7.8850299400e-02     1     2    10    10
 7.3300000000e-08     1     2    10    11
 7.4151700000e-05     1     2    10    12
 5.0685000000e-05     1     2    10    13
-2.6053650000e-04     1     2    11     1
 1.1384370000e-04     1     2    11     3
-2.6165800000e-05     1     2    11     4
-4.8620400000e-05     1     2    11     5
 5.7490400000e-05     1     2    11     6
 8.8643100000e-05     1     2    11     7
-1.2402630000e-04     1     2    11     8
 2.6688840000e-04     1     2    11     9
 7.6800000000e-08     1     2    11    10
-7.8857555000e-02     1     2    11    11
-9.0447000000e-06     1     2    11    12
-3.9598700000e-05     1     2    11    13
 2.3840570000e-03     1     2    12     1
-1.1708427000e-03     1     2    12     3
-4.1326914000e-03     1     2    12     4
-1.7094400000e-05     1     2    12     5
-6.0560200000e-04     1     2    12     6
-4.3815697000e-03     1     2    12     7
-9.2340434000e-03     1     2    12     8
-2.4974546000e-03     1     2    12     9
 7.4343500000e-05     1     2    12    10
-9.1048000000e-06     1     2    12    11
-8.9635954300e-02     1     2    12    12
-9.4531800000e-05     1     2    12    13
 2.8664226000e-03     1     2    13     1
-1.2128901000e-03     1     2    13     3
 2.5156830000e-04     1     2    13     4
-4.1077681000e-03     1     2    13     5
-7.3621310000e-04     1     2    13     6
 9.3441747000e-03     1     2    13     7
-3.8150682000e-03     1     2    13     8
-3.0584900000e-03     1     2    13     9
 5.0486700000e-05     1     2    13    10
-3.8526600000e-05     1     2    13    11
-9.5343100000e-05     1     2    13    12
-8.9665188900e-02     1     2    13    13
-9.7778065000e-03     1     3     2     1
 4.0740728000e-02     1     3     2     2
 1.9228000000e-06     1     3     2     4
-1.0344000000e-06     1     3     2     5
-1.0135766600e-02     1     3     2     6
-8.0269510000e-04     1     3     2     7
-5.6894680000e-04     1     3     2     8
-3.4181498700e-02     1     3     2     9
 4.4118600000e-05     1     3     2    10
 2.0364780000e-04     1     3     2    11
-2.1214794000e-03     1     3     2    12
-2.1907292000e-03     1     3     2    13
-1.3404795770e-01     1     3     3     1
 8.2965583400e-02     1     3     3     2
 1.0025909000e-03     1     3     3     4
-5.4468740000e-04     1     3     3     5
-2.5901052700e-02     1     3     3     6
-2.1515710000e-04     1     3     3     7
-1.6261410000e-04     1     3     3     8
-1.0866735000e-03     1     3     3     9
-2.0893750000e-04     1     3     3    10
-1.0074983000e-03     1     3     3    11
 1.1358754500e-02     1     3     3    12
 1.0564843000e-02     1     3     3    13
 7.1365800000e-05     1     3     4     1
-6.2304800000e-05     1     3     4     2
 4.2152077400e-02     1     3     4     4
-3.6400000000e-08     1     3     4     5
 2.1251620000e-04     1     3     4     6
-1.9757695000e-03     1     3     4     7
-4.2087204000e-03     1     3     4     8
 2.1452880000e-04     1     3     4     9
-1.5867760000e-04     1     3     4    10
 1.2669047000e-03     1     3     4    11
 3.7576614300e-02     1     3     4    12
-2.4922181000e-03     1     3     4    13
-3.8783700000e-05     1     3     5     1
 3.3852000000e-05     1     3     5     2
 8.5300000000e-08     1     3     5     4
 4.2151971500e-02     1     3     5     5
-1.1569820000e-04     1     3     5     6
 4.1759925000e-03     1     3     5     7
-1.9936637000e-03     1     3     5     8
-1.1215220000e-04     1     3     5     9
-1.1953776000e-03     1     3     5    10
 6.4464690000e-04     1     3     5    11
 1.4901380000e-04     1     3     5    12
 3.7683248300e-02     1     3     5    13
-1.8761840000e-04     1     3     6     1
 3.1012033000e-03     1     3     6     2
 1.7956000000e-06     1     3     6     4
-9.1480000000e-07     1     3     6     5
 4.1455066800e-02     1     3     6     6
 1.1263780000e-04     1     3     6     7
 7.6839500000e-05     1     3     6     8
 1.3812549400e-02     1     3     6     9
-2.6016200000e-05     1     3     6    10
-1.2150170000e-04     1     3     6    11
 1.3351853000e-03     1     3     6    12
 1.4549347000e-03     1     3     6    13
-1.4802201000e-03     1     3     7     1
 4.4744980000e-04     1     3     7     2
 2.8334350000e-04     1     3     7     4
-5.9625110000e-04     1     3     7     5
-4.1236310000e-04     1     3     7     6
 4.5940708800e-02     1     3     7     7
-7.3460000000e-07     1     3     7     8
 7.1473300000e-05     1     3     7     9
 1.6410540000e-04     1     3     7    10
-3.8379000000e-05     1     3     7    11
 4.5289781000e-03     1     3     7    12
-9.7452752000e-03     1     3     7    13
-1.0444946000e-03     1     3     8     1
 3.1784730000e-04     1     3     8     2
 5.9515330000e-04     1     3     8     4
 2.8256130000e-04     1     3     8     5
-2.9551240000e-04     1     3     8     6
 8.1400000000e-08     1     3     8     7
 4.5937592700e-02     1     3     8     8
 5.4093100000e-05     1     3     8     9
-1.4008670000e-04     1     3     8    10
 2.6337980000e-04     1     3     8    11
 9.5711167000e-03     1     3     8    12
 3.9352598000e-03     1     3     8    13
-6.1131783100e-02     1     3     9     1
 1.7787922600e-02     1     3     9     2
-1.3190000000e-06     1     3     9     4
 1.2107000000e-06     1     3     9     5
-8.9653848000e-03     1     3     9     6
 4.4410500000e-05     1     3     9     7
 3.2380700000e-05     1     3     9     8
 4.7699733200e-02     1     3     9     9
-3.1870900000e-05     1     3     9    10
-1.5103220000e-04     1     3     9    11
 1.7063040000e-03     1     3     9    12
 1.8892130000e-03     1     3     9    13
 2.6121530000e-04     1     3    10     1
-2.4519200000e-05     1     3    10     2
-1.0653300000e-05     1     3    10     4
-8.0652000000e-06     1     3    10     5
 1.3434300000e-05     1     3    10     6
-1.3676950000e-04     1     3    10     7
 6.9642900000e-05     1     3    10     8
 2.5075600000e-05     1     3    10     9
 4.2331910100e-02     1     3    10    10
 5.2020000000e-07     1     3    10    11
-1.6132900000e-05     1     3    10    12
 1.2325720000e-04     1     3    10    13
 1.2139741000e-03     1     3    11     1
-1.1384370000e-04     1     3    11     2
 9.8252000000e-06     1     3    11     4
 1.5773400000e-05     1     3    11     5
 6.2365600000e-05     1     3    11     6
-7.9201000000e-06     1     3    11     7
-1.6825100000e-04     1     3    11     8
 1.1450750000e-04     1     3    11     9
 2.6840000000e-07     1     3    11    10
 4.2332039000e-02     1     3    11    11
-1.3888940000e-04     1     3    11    12
-1.2910700000e-05     1     3    11    13
-1.2297289800e-02     1     3    12     1
 1.1708427000e-03     1     3    12     2
 1.1194980000e-03     1     3    12     4
-8.5310000000e-07     1     3    12     5
-5.5792320000e-04     1     3    12     6
-9.8209780000e-04     1     3    12     7
-2.0568170000e-03     1     3    12     8
-9.9177470000e-04     1     3    12     9
 2.1915400000e-05     1     3    12    10
 7.2885300000e-05     1     3    12    11
 4.3239030800e-02     1     3    12    12
-3.9328000000e-06     1     3    12    13
-1.2927754600e-02     1     3    13     1
 1.2128901000e-03     1     3    13     2
-6.1690700000e-05     1     3    13     4
 1.1056251000e-03     1     3    13     5
-5.7385770000e-04     1     3    13     6
 2.1084949000e-03     1     3    13     7
-8.4817060000e-04     1     3    13     8
-1.0589338000e-03     1     3    13     9
-7.8507900000e-05     1     3    13    10
 6.2446000000e-06     1     3    13    11
 1.0823450000e-04     1     3    13    12
 4.3235180600e-02     1     3    13    13
 2.2866410000e-04     1     4     2     1
-9.6708080000e-04     1     4     2     2
-1.9228000000e-06     1     4     2     3
 2.3720000000e-07     1     4     2     5
 2.4120580000e-04     1     4     2     6
-1.4698622000e-02     1     4     2     7
-3.1021117600e-02     1     4     2     8
 8.5869740000e-04     1     4     2     9
 7.3681200000e-05     1     4     2    10
-6.2934800000e-05     1     4     2    11
-8.2311536000e-03     1     4     2    12
 4.9791700000e-04     1     4     2    13
 7.1365800000e-05     1     4     3     1
-6.4227600000e-05     1     4     3     2
-1.0025909000e-03     1     4     3     3
-1.2170000000e-07     1     4     3     5
 2.1072060000e-04     1     4     3     6
-2.2591130000e-03     1     4     3     7
-4.8038737000e-03     1     4     3     8
 2.1584780000e-04     1     4     3     9
-1.4802430000e-04     1     4     3    10
 1.2570795000e-03     1     4     3    11
 3.6457116300e-02     1     4     3    12
-2.4305274000e-03     1     4     3    13
-1.3090342690e-01     1     4     4     1
 8.0439460600e-02     1     4     4     2
-4.2152077400e-02     1     4     4     3
-5.4186840000e-04     1     4     4     5
-1.7030561600e-02     1     4     4     6
 1.0895250000e-04     1     4     4     7
 2.1610030000e-04     1     4     4     8
 7.8010098000e-03     1     4     4     9
-1.1129545700e-02     1     4     4    10
 3.4464735000e-02     1     4     4    11
-6.2305967000e-03     1     4     4    12
-5.3955845000e-03     1     4     4    13
 9.4880000000e-07     1     4     5     1
-7.4130000000e-07     1     4     5     2
-8.5300000000e-08     1     4     5     3
-9.9738950000e-04     1     4     5     5
 2.6687000000e-06     1     4     5     6
-1.2820880000e-04     1     4     5     7
-1.5802400000e-05     1     4     5     8
 2.5667000000e-06     1     4     5     9
-3.4572462100e-02     1     4     5    10
-1.1420508500e-02     1     4     5    11
 1.5658870000e-04     1     4     5    12
-1.0696902000e-03     1     4     5    13
 1.0950000000e-07     1     4     6     1
-7.5353300000e-05     1     4     6     2
-1.7956000000e-06     1     4     6     3
 1.2350000000e-07     1     4     6     5
-9.8318840000e-04     1     4     6     6
 1.9767884000e-03     1     4     6     7
 4.1601323000e-03     1     4     6     8
-3.4254700000e-04     1     4     6     9
-2.9728400000e-05     1     4     6    10
 2.5856700000e-05     1     4     6    11
 3.6829540000e-03     1     4     6    12
-2.3428590000e-04     1     4     6    13
-2.7004805800e-02     1     4     7     1
 8.2932497000e-03     1     4     7     2
-2.8334350000e-04     1     4     7     3
 1.1700800000e-05     1     4     7     5
-7.7168110000e-03     1     4     7     6
-1.0847132000e-03     1     4     7     7
 1.2084900000e-05     1     4     7     8
 1.7657313000e-03     1     4     7     9
 4.1192806000e-03     1     4     7    10
 4.2316779000e-03     1     4     7    11
-5.4483050000e-04     1     4     7    12
-3.4913300000e-04     1     4     7    13
-5.6976116700e-02     1     4     8     1
 1.7511052200e-02     1     4     8     2
-5.9515330000e-04     1     4     8     3
-1.6110400000e-05     1     4     8     5
-1.6296812600e-02     1     4     8     6
 1.1210600000e-05     1     4     8     7
-1.0724707000e-03     1     4     8     8
 3.7361066000e-03     1     4     8     9
-4.0382973000e-03     1     4     8    10
 4.6281360000e-03     1     4     8    11
-1.2991915000e-03     1     4     8    12
-1.3812683000e-03     1     4     8    13
 1.5323797000e-03     1     4     9     1
-4.4709570000e-04     1     4     9     2
 1.3190000000e-06     1     4     9     3
 8.2600000000e-08     1     4     9     5
 2.3088710000e-04     1     4     9     6
 1.2070373000e-03     1     4     9     7
 2.5512697000e-03     1     4     9     8
-1.1573530000e-03     1     4     9     9
-2.5761100000e-05     1     4     9    10
 7.7012000000e-06     1     4     9    11
 4.0327550000e-03     1     4     9    12
-2.6980810000e-04     1     4     9    13
 4.1458870000e-04     1     4    10     1
-3.5178900000e-05     1     4    10     2
 1.0653300000e-05     1     4    10     3
 1.2950000000e-07     1     4    10     5
 2.0334400000e-05     1     4    10     6
-3.7721667000e-03     1     4    10     7
 3.2923025000e-03     1     4    10     8
 6.2208700000e-05     1     4    10     9
-1.0120084000e-03     1     4    10    10
 3.2041000000e-05     1     4    10    11
 1.1905625000e-03     1     4    10    12
 4.2959316000e-03     1     4    10    13
-3.6447800000e-04     1     4    11     1
 2.6165800000e-05     1     4    11     2
-9.8252000000e-06     1     4    11     3
-2.1400000000e-07     1     4    11     5
-1.5619400000e-05     1     4    11     6
-3.1176612000e-03     1     4    11     7
-2.9682185000e-03     1     4    11     8
-5.1089000000e-05     1     4    11     9
-2.4187400000e-05     1     4    11    10
-9.9974150000e-04     1     4    11    11
-3.8015727000e-03     1     4    11    12
 1.6144525000e-03     1     4    11    13
-4.5291080700e-02     1     4    12     1
 4.1326914000e-03     1     4    12     2
-1.1194980000e-03     1     4    12     3
-1.4012100000e-05     1     4    12     5
-2.0286366000e-03     1     4    12     6
 3.6067200000e-05     1     4    12     7
 1.7272270000e-04     1     4    12     8
-4.8697379000e-03     1     4    12     9
-1.0573053000e-03     1     4    12    10
 3.4262675000e-03     1     4    12    11
-1.3898787000e-03     1     4    12    12
-1.9078670000e-03     1     4    12    13
 2.8195245000e-03     1     4    13     1
-2.5156830000e-04     1     4    13     2
 6.1690700000e-05     1     4    13     3
-2.4939200000e-05     1     4    13     5
 1.2360310000e-04     1     4    13     6
 1.4697400000e-05     1     4    13     7
 1.9724330000e-04     1     4    13     8
 3.0174790000e-04     1     4    13     9
-2.7591227000e-03     1     4    13    10
-1.1147926000e-03     1     4    13    11
 1.5525386000e-03     1     4    13    12
-1.0013395000e-03     1     4    13    13
-1.2434660000e-04     1     5     2     1
 5.2547920000e-04     1     5     2     2
 1.0344000000e-06     1     5     2     3
-2.3720000000e-07     1     5     2     4
-1.3336710000e-04     1     5     2     6
 3.1032164900e-02     1     5     2     7
-1.4709117200e-02     1     5     2     8
-4.8200760000e-04     1     5     2     9
 4.9365200000e-05     1     5     2    10
-1.0290270000e-04     1     5     2    11
-3.1606300000e-05     1     5     2    12
-8.1787035000e-03     1     5     2    13
-3.8783700000e-05     1     5     3     1
 3.4886400000e-05     1     5     3     2
 5.4468740000e-04     1     5     3     3
 1.2170000000e-07     1     5     3     4
-1.1478340000e-04     1     5     3     6
 4.7722436000e-03     1     5     3     7
-2.2762250000e-03     1     5     3     8
-1.1336290000e-04     1     5     3     9
-1.1873124000e-03     1     5     3    10
 6.2887350000e-04     1     5     3    11
 1.4986690000e-04     1     5     3    12
 3.6577623200e-02     1     5     3    13
 9.4880000000e-07     1     5     4     1
-9.7850000000e-07     1     5     4     2
 3.6400000000e-08     1     5     4     3
 5.4186840000e-04     1     5     4     4
 2.5452000000e-06     1     5     4     6
-1.3990960000e-04     1     5     4     7
 3.0800000000e-07     1     5     4     8
 2.4841000000e-06     1     5     4     9
-3.4572591600e-02     1     5     4    10
-1.1420294500e-02     1     5     4    11
 1.7060080000e-04     1     5     4    12
-1.0447510000e-03     1     5     4    13
-1.3090162470e-01     1     5     5     1
 8.0438080100e-02     1     5     5     2
-4.2151971500e-02     1     5     5     3
 9.9738950000e-04     1     5     5     4
-1.7026750600e-02     1     5     5     6
 1.2496090000e-04     1     5     5     7
-4.2370800000e-05     1     5     5     8
 7.8052055000e-03     1     5     5     9
 1.1315213900e-02     1     5     5    10
-3.3567947200e-02     1     5     5    11
-4.1389301000e-03     1     5     5    12
-3.9998726000e-03     1     5     5    13
-4.5122000000e-06     1     5     6     1
 4.2322300000e-05     1     5     6     2
 9.1480000000e-07     1     5     6     3
-1.2350000000e-07     1     5     6     4
 5.3289570000e-04     1     5     6     6
-4.1715720000e-03     1     5     6     7
 1.9741770000e-03     1     5     6     8
 1.9032150000e-04     1     5     6     9
-2.0039300000e-05     1     5     6    10
 4.0112400000e-05     1     5     6    11
 2.1569700000e-05     1     5     6    12
 3.6754149000e-03     1     5     6    13
 5.7020275200e-02     1     5     7     1
-1.7515641800e-02     1     5     7     2
 5.9625110000e-04     1     5     7     3
-1.1700800000e-05     1     5     7     4
 1.6294525300e-02     1     5     7     6
 5.7955630000e-04     1     5     7     7
 3.0746000000e-06     1     5     7     8
-3.7284281000e-03     1     5     7     9
-4.0805411000e-03     1     5     7    10
 4.4454746000e-03     1     5     7    11
 1.0154050000e-03     1     5     7    12
 1.0409378000e-03     1     5     7    13
-2.7015307600e-02     1     5     8     1
 8.2995581000e-03     1     5     8     2
-2.8256130000e-04     1     5     8     3
 1.6110400000e-05     1     5     8     4
-7.7254886000e-03     1     5     8     6
 5.3907000000e-06     1     5     8     7
 5.9105060000e-04     1     5     8     8
 1.7705611000e-03     1     5     8     9
-4.1026902000e-03     1     5     8    10
-4.1373084000e-03     1     5     8    11
-3.9525160000e-04     1     5     8    12
-5.2846950000e-04     1     5     8    13
-8.6551700000e-04     1     5     9     1
 2.5137320000e-04     1     5     9     2
-1.2107000000e-06     1     5     9     3
-8.2600000000e-08     1     5     9     4
-1.3184430000e-04     1     5     9     6
-2.5495222000e-03     1     5     9     7
 1.2092594000e-03     1     5     9     8
 6.3014410000e-04     1     5     9     9
-1.0262700000e-05     1     5     9    10
 2.7192400000e-05     1     5     9    11
 1.5442600000e-05     1     5     9    12
 4.0459679000e-03     1     5     9    13
 2.7657460000e-04     1     5    10     1
-2.3889600000e-05     1     5    10     2
 8.0652000000e-06     1     5    10     3
-1.2950000000e-07     1     5    10     4
 1.3457300000e-05     1     5    10     6
 3.3063597000e-03     1     5    10     7
 3.7650635000e-03     1     5    10     8
 2.5984400000e-05     1     5    10     9
 5.3530610000e-04     1     5    10    10
 4.2402000000e-05     1     5    10    11
 4.4105173000e-03     1     5    10    12
-1.4469105000e-03     1     5    10    13
-5.8495660000e-04     1     5    11     1
 4.8620400000e-05     1     5    11     2
-1.5773400000e-05     1     5    11     3
 2.1400000000e-07     1     5    11     4
-2.7604500000e-05     1     5    11     6
-2.9283101000e-03     1     5    11     7
 3.0902954000e-03     1     5    11     8
-7.8344400000e-05     1     5    11     9
-3.6445100000e-05     1     5    11    10
 5.5061770000e-04     1     5    11    11
 1.4256387000e-03     1     5    11    12
 3.3393621000e-03     1     5    11    13
-1.3127730000e-04     1     5    12     1
 1.7094400000e-05     1     5    12     2
 8.5310000000e-07     1     5    12     3
 1.4012100000e-05     1     5    12     4
-6.9546000000e-06     1     5    12     6
-1.0232730000e-04     1     5    12     7
 5.5598100000e-05     1     5    12     8
-8.7427000000e-06     1     5    12     9
-2.8506840000e-03     1     5    12    10
-9.2617250000e-04     1     5    12    11
 5.5912130000e-04     1     5    12    12
 1.1668149000e-03     1     5    12    13
-4.5142293900e-02     1     5    13     1
 4.1077681000e-03     1     5    13     2
-1.1056251000e-03     1     5    13     3
 2.4939200000e-05     1     5    13     4