&FCI NORB= 13,NELEC=  2,MS2=0,
 ORBSYM=1,1,1,1,1,1,1,1,1,1,1,1,1
 ISYM=1,
&END
 1.3670554080e-01     1     1     2     2
-1.3869000000e-06     1     1     2     3
 1.3432000000e-06     1     1     2     4
 2.8172457000e-03     1     1     2     5
 1.0140910840e-01     1     1     2     6
 1.4314680000e-04     1     1     2     7
 3.1606700000e-04     1     1     2     8
 2.2836543300e-02     1     1     2     9
 7.1677860000e-04     1     1     2    10
-1.7873190000e-04     1     1     2    11
 3.9894500000e-05     1     1     2    12
-5.2193000000e-06     1     1     2    13
-1.3869000000e-06     1     1     3     2
 1.7064409330e-01     1     1     3     3
-2.1300000000e-08     1     1     3     4
-1.4437900000e-05     1     1     3     5
 2.7225640000e-04     1     1     3     6
-2.6479396100e-02     1     1     3     7
-7.7848655100e-02     1     1     3     8
 8.1013700000e-05     1     1     3     9
 2.2391530000e-04     1     1     3    10
 2.6225310000e-04     1     1     3    11
-2.9198171700e-02     1     1     3    12
 5.5452259000e-03     1     1     3    13
 1.3432000000e-06     1     1     4     2
-2.1300000000e-08     1     1     4     3
 1.7063974310e-01     1     1     4     4
 1.7326300000e-05     1     1     4     5
 2.2602100000e-05     1     1     4     6
-7.7854844400e-02     1     1     4     7
 2.6475388600e-02     1     1     4     8
 2.0349000000e-05     1     1     4     9
-4.3053700000e-05     1     1     4    10
-9.8976100000e-05     1     1     4    11
 5.5586286000e-03     1     1     4    12
 2.9188677500e-02     1     1     4    13
 2.8172457000e-03     1     1     5     2
-1.4437900000e-05     1     1     5     3
 1.7326300000e-05     1     1     5     4
 2.0241802630e-01     1     1     5     5
 1.7854465700e-02     1     1     5     6
-2.0179000000e-06     1     1     5     7
 2.7941200000e-05     1     1     5     8
-8.0076577100e-02     1     1     5     9
-2.4957699000e-03     1     1     5    10
 6.1379910000e-04     1     1     5    11
-1.0520380000e-04     1     1     5    12
 2.4647500000e-05     1     1     5    13
 1.0140910840e-01     1     1     6     2
 2.7225640000e-04     1     1     6     3
 2.2602100000e-05     1     1     6     4
 1.7854465700e-02     1     1     6     5
 2.4635062430e-01     1     1     6     6
 4.5601000000e-06     1     1     6     7
 2.1091800000e-05     1     1     6     8
 1.6510490000e-03     1     1     6     9
 4.3355800000e-05     1     1     6    10
-7.9099000000e-06     1     1     6    11
-2.9481100000e-05     1     1     6    12
-5.8905000000e-06     1     1     6    13
 1.4314680000e-04     1     1     7     2
-2.6479396100e-02     1     1     7     3
-7.7854844400e-02     1     1     7     4
-2.0179000000e-06     1     1     7     5
 4.5601000000e-06     1     1     7     6
 2.4855177820e-01     1     1     7     7
 9.6360000000e-07     1     1     7     8
-1.3652100000e-05     1     1     7     9
-4.5640000000e-06     1     1     7    10
 3.0449000000e-06     1     1     7    11
 3.1211140000e-04     1     1     7    12
-2.2041809000e-03     1     1     7    13
 3.1606700000e-04     1     1     8     2
-7.7848655100e-02     1     1     8     3
 2.6475388600e-02     1     1     8     4
 2.7941200000e-05     1     1     8     5
 2.1091800000e-05     1     1     8     6
 9.6360000000e-07     1     1     8     7
 2.4855085880e-01     1     1     8     8
 7.2468000000e-06     1     1     8     9
-1.4326000000e-05     1     1     8    10
-1.5090800000e-05     1     1     8    11
 2.2108977000e-03     1     1     8    12
 3.1573800000e-04     1     1     8    13
 2.2836543300e-02     1     1     9     2
 8.1013700000e-05     1     1     9     3
 2.0349000000e-05     1     1     9     4
-8.0076577100e-02     1     1     9     5
 1.6510490000e-03     1     1     9     6
-1.3652100000e-05     1     1     9     7
 7.2468000000e-06     1     1     9     8
 2.5087507220e-01     1     1     9     9
 5.6236840000e-04     1     1     9    10
-1.3910470000e-04     1     1     9    11
 1.7353400000e-05     1     1     9    12
-4.4490000000e-06     1     1     9    13
 7.1677860000e-04     1     1    10     2
 2.2391530000e-04     1     1    10     3
-4.3053700000e-05     1     1    10     4
-2.4957699000e-03     1     1    10     5
 4.3355800000e-05     1     1    10     6
-4.5640000000e-06     1     1    10     7
-1.4326000000e-05     1     1    10     8
 5.6236840000e-04     1     1    10     9
 2.2079741530e-01     1     1    10    10
-3.7492000000e-06     1     1    10    11
-5.0289400000e-05     1     1    10    12
-2.3659000000e-06     1     1    10    13
-1.7873190000e-04     1     1    11     2
 2.6225310000e-04     1     1    11     3
-9.8976100000e-05     1     1    11     4
 6.1379910000e-04     1     1    11     5
-7.9099000000e-06     1     1    11     6
 3.0449000000e-06     1     1    11     7
-1.5090800000e-05     1     1    11     8
-1.3910470000e-04     1     1    11     9
-3.7492000000e-06     1     1    11    10
 2.2077774960e-01     1     1    11    11
-6.5486300000e-05     1     1    11    12
-8.9796000000e-06     1     1    11    13
 3.9894500000e-05     1     1    12     2
-2.9198171700e-02     1     1    12     3
 5.5586286000e-03     1     1    12     4
-1.0520380000e-04     1     1    12     5
-2.9481100000e-05     1     1    12     6
 3.1211140000e-04     1     1    12     7
 2.2108977000e-03     1     1    12     8
 1.7353400000e-05     1     1    12     9
-5.0289400000e-05     1     1    12    10
-6.5486300000e-05     1     1    12    11
 2.3276141950e-01     1     1    12    12
 2.8450000000e-07     1     1    12    13
-5.2193000000e-06     1     1    13     2
 5.5452259000e-03     1     1    13     3
 2.9188677500e-02     1     1    13     4
 2.4647500000e-05     1     1    13     5
-5.8905000000e-06     1     1    13     6
-2.2041809000e-03     1     1    13     7
 3.1573800000e-04     1     1    13     8
-4.4490000000e-06     1     1    13     9
-2.3659000000e-06     1     1    13    10
-8.9796000000e-06     1     1    13    11
 2.8450000000e-07     1     1    13    12
 2.3275997950e-01     1     1    13    13
-1.3670554080e-01     1     2     2     1
-4.0235000000e-06     1     2     2     3
 4.3822000000e-06     1     2     2     4
 5.1814728000e-03     1     2     2     5
 6.1260874600e-02     1     2     2     6
 8.8541600000e-05     1     2     2     7
 1.9180240000e-04     1     2     2     8
 1.5614708300e-02     1     2     2     9
 4.8384370000e-04     1     2     2    10
-1.2084670000e-04     1     2     2    11
 3.0475900000e-05     1     2     2    12
-2.9139000000e-06     1     2     2    13
 1.3869000000e-06     1     2     3     1
 1.0261417920e-01     1     2     3     3
 1.4610000000e-07     1     2     3     4
-2.6420000000e-07     1     2     3     5
 1.8502800000e-04     1     2     3     6
-1.7990999500e-02     1     2     3     7
-5.2891937000e-02     1     2     3     8
 4.9899100000e-05     1     2     3     9
 1.2993810000e-04     1     2     3    10
 1.5092670000e-04     1     2     3    11
-1.7073969300e-02     1     2     3    12
 3.2403258000e-03     1     2     3    13
-1.3432000000e-06     1     2     4     1
-1.5140000000e-07     1     2     4     3
 1.0261268220e-01     1     2     4     4
 3.2210000000e-07     1     2     4     5
 1.3854100000e-05     1     2     4     6
-5.2895571200e-02     1     2     4     7
 1.7988636700e-02     1     2     4     8
 1.5950200000e-05     1     2     4     9
-2.4415700000e-05     1     2     4    10
-5.7602800000e-05     1     2     4    11
 3.2497372000e-03     1     2     4    12
 1.7066845800e-02     1     2     4    13
-2.8172457000e-03     1     2     5     1
-1.0021000000e-06     1     2     5     3
 1.3528000000e-06     1     2     5     4
 1.0918539460e-01     1     2     5     5
 9.9944928000e-03     1     2     5     6
-1.6020000000e-06     1     2     5     7
 1.1233400000e-05     1     2     5     8
-5.2613035600e-02     1     2     5     9
-1.6175534000e-03     1     2     5    10
 3.9734580000e-04     1     2     5    11
-6.2189700000e-05     1     2     5    12
 1.8821500000e-05     1     2     5    13
-1.0140910840e-01     1     2     6     1
 4.2816400000e-05     1     2     6     3
 3.9821000000e-06     1     2     6     4
 2.5862686000e-03     1     2     6     5
 1.1752651150e-01     1     2     6     6
 5.8779000000e-06     1     2     6     7
 1.6369400000e-05     1     2     6     8
 1.9271085000e-03     1     2     6     9
 5.8176000000e-05     1     2     6    10
-1.2888000000e-05     1     2     6    11
-2.0791000000e-05     1     2     6    12
-1.9061000000e-06     1     2     6    13
-1.4314680000e-04     1     2     7     1
-4.1845790000e-03     1     2     7     3
-1.2309912100e-02     1     2     7     4
-3.9904000000e-06     1     2     7     5
 4.5791000000e-06     1     2     7     6
 1.1749192160e-01     1     2     7     7
 2.1000000000e-09     1     2     7     8
-6.6026000000e-06     1     2     7     9
-4.8949000000e-06     1     2     7    10
 2.6330000000e-06     1     2     7    11
 4.5862310000e-04     1     2     7    12
-3.2512597000e-03     1     2     7    13
-3.1606700000e-04     1     2     8     1
-1.2308369600e-02     1     2     8     3
 4.1843680000e-03     1     2     8     4
 7.4930000000e-06     1     2     8     5
 1.7164500000e-05     1     2     8     6
 1.2229000000e-06     1     2     8     7
 1.1749090780e-01     1     2     8     8
 4.6516000000e-06     1     2     8     9
-2.3641600000e-05     1     2     8    10
-2.8436200000e-05     1     2     8    11
 3.2553718000e-03     1     2     8    12
 4.6102630000e-04     1     2     8    13
-2.2836543300e-02     1     2     9     1
 1.4697000000e-05     1     2     9     3
-6.9030000000e-07     1     2     9     4
-1.5503965500e-02     1     2     9     5
 2.4348140000e-04     1     2     9     6
-6.9156000000e-06     1     2     9     7
 1.0193000000e-06     1     2     9     8
 1.2149838720e-01     1     2     9     9
 5.1371640000e-04     1     2     9    10
-1.2681090000e-04     1     2     9    11
 1.5291700000e-05     1     2     9    12
-3.7302000000e-06     1     2     9    13
-7.1677860000e-04     1     2    10     1
 2.7627000000e-05     1     2    10     3
-5.5121000000e-06     1     2    10     4
-4.7456800000e-04     1     2    10     5
 6.6671000000e-06     1     2    10     6
-3.1852000000e-06     1     2    10     7
-1.1919700000e-05     1     2    10     8
 5.1181540000e-04     1     2    10     9
 9.8449883100e-02     1     2    10    10
-3.4632000000e-06     1     2    10    11
-3.9326000000e-05     1     2    10    12
-1.6135000000e-06     1     2    10    13
 1.7873190000e-04     1     2    11     1
 3.2237400000e-05     1     2    11     3
-1.2112500000e-05     1     2    11     4
 1.1671750000e-04     1     2    11     5
-5.3100000000e-08     1     2    11     6
 2.1770000000e-06     1     2    11     7
-1.3721700000e-05     1     2    11     8
-1.2633790000e-04     1     2    11     9
-3.4644000000e-06     1     2    11    10
 9.8430196200e-02     1     2    11    11
-5.1070100000e-05     1     2    11    12
-7.2806000000e-06     1     2    11    13
-3.9894500000e-05     1     2    12     1
-3.6604062000e-03     1     2    12     3
 6.9623480000e-04     1     2    12     4
-1.7923400000e-05     1     2    12     5
-2.0122100000e-05     1     2    12     6
 2.4309760000e-04     1     2    12     7
 1.7235928000e-03     1     2    12     8
 1.4875500000e-05     1     2    12     9
-3.9642400000e-05     1     2    12    10
-5.1502500000e-05     1     2    12    11
 1.0653054370e-01     1     2    12    12
 2.2000000000e-09     1     2    12    13
 5.2193000000e-06     1     2    13     1
 6.9408540000e-04     1     2    13     3
 3.6588745000e-03     1     2    13     4
 6.3485000000e-06     1     2    13     5
-3.0889000000e-06     1     2    13     6
-1.7194360000e-03     1     2    13     7
 2.4531900000e-04     1     2    13     8
-4.8190000000e-06     1     2    13     9
-1.6452000000e-06     1     2    13    10
-7.2956000000e-06     1     2    13    11
 6.1920000000e-07     1     2    13    12
 1.0652957250e-01     1     2    13    13
 1.3869000000e-06     1     3     2     1
 4.0235000000e-06     1     3     2     2
 2.9750000000e-07     1     3     2     4
 7.3790000000e-07     1     3     2     5
 1.4221160000e-04     1     3     2     6
-1.3806420500e-02     1     3     2     7
-4.0583567400e-02     1     3     2     8
 3.5202100000e-05     1     3     2     9
 1.0231110000e-04     1     3     2    10
 1.1868930000e-04     1     3     2    11
-1.3413563100e-02     1     3     2    12
 2.5462404000e-03     1     3     2    13
-1.7064409330e-01     1     3     3     1
-1.0261417920e-01     1     3     3     2
 3.2508000000e-06     1     3     3     4
 4.1909228000e-03     1     3     3     5
-2.0204692800e-02     1     3     3     6
-3.5813300000e-05     1     3     3     7
-3.8069100000e-05     1     3     3     8
-1.1446974400e-02     1     3     3     9
-3.1921972500e-02     1     3     3    10
 2.6546836200e-02     1     3     3    11
-1.0029560000e-04     1     3     3    12
 3.3140500000e-05     1     3     3    13
 2.1300000000e-08     1     3     4     1
 1.5140000000e-07     1     3     4     2
 2.9066000000e-06     1     3     4     4
-6.1000000000e-09     1     3     4     5
 2.7200000000e-08     1     3     4     6
 7.7581000000e-06     1     3     4     7
-1.5830400000e-05     1     3     4     8
 5.9093620000e-04     1     3     4     9
-2.6857192600e-02     1     3     4    10
-3.2048173600e-02     1     3     4    11
-4.6187260000e-04     1     3     4    12
-2.6135600000e-05     1     3     4    13
 1.4437900000e-05     1     3     5     1
 1.0021000000e-06     1     3     5     2
-1.5000000000e-08     1     3     5     4
 6.0958000000e-06     1     3     5     5
 6.2965900000e-05     1     3     5     6
-4.6902767000e-03     1     3     5     7
-1.3783381500e-02     1     3     5     8
-1.0616340000e-04     1     3     5     9
-3.0886380000e-04     1     3     5    10
-3.3206450000e-04     1     3     5    11
 4.1815360200e-02     1     3     5    12
-7.9708187000e-03     1     3     5    13
-2.7225640000e-04     1     3     6     1
-4.2816400000e-05     1     3     6     2
-1.8460000000e-07     1     3     6     4
-1.6685000000e-06     1     3     6     5
-4.3033600000e-05     1     3     6     6
-2.6555643000e-03     1     3     6     7
-7.8002291000e-03     1     3     6     8
 1.6886500000e-05     1     3     6     9
-3.9715000000e-06     1     3     6    10
 3.5134800000e-05     1     3     6    11
-2.4706115000e-03     1     3     6    12
 4.6713000000e-04     1     3     6    13
 2.6479396100e-02     1     3     7     1
 4.1845790000e-03     1     3     7     2
-8.0070000000e-07     1     3     7     4
 9.3782500000e-05     1     3     7     5
 6.1486094000e-03     1     3     7     6
 8.9131000000e-06     1     3     7     7
 7.5204000000e-06     1     3     7     8
-2.6601840000e-04     1     3     7     9
 6.1280118000e-03     1     3     7    10
 3.4237149000e-03     1     3     7    11
 9.1533200000e-05     1     3     7    12
 2.3588000000e-06     1     3     7    13
 7.7848655100e-02     1     3     8     1
 1.2308369600e-02     1     3     8     2
-4.0210000000e-07     1     3     8     4
 2.7778300000e-04     1     3     8     5
 1.8079391100e-02     1     3     8     6
 1.5138800000e-05     1     3     8     7
 4.7201300000e-05     1     3     8     8
-3.6067180000e-04     1     3     8     9
 4.0768386000e-03     1     3     8    10
-6.2648801000e-03     1     3     8    11
-1.2338000000e-06     1     3     8    12
 8.7450000000e-07     1     3     8    13
-8.1013700000e-05     1     3     9     1
-1.4697000000e-05     1     3     9     2
-1.0100000000e-08     1     3     9     4
-3.2178000000e-06     1     3     9     5
 6.3184000000e-06     1     3     9     6
-1.1741003000e-03     1     3     9     7
-3.7620567000e-03     1     3     9     8
-9.6754000000e-06     1     3     9     9
 1.3662000000e-05     1     3     9    10
 2.3434200000e-05     1     3     9    11
-3.6824139000e-03     1     3     9    12
 6.8112710000e-04     1     3     9    13
-2.2391530000e-04     1     3    10     1
-2.7627000000e-05     1     3    10     2
 4.1580000000e-07     1     3    10     4
-1.4119200000e-05     1     3    10     5
-1.6642000000e-06     1     3    10     6
-7.4766103000e-03     1     3    10     7
-3.9067500000e-03     1     3    10     8
-7.8620800000e-05     1     3    10     9
 4.6282000000e-06     1     3    10    10
 1.6168500000e-05     1     3    10    11
-1.0477770000e-03     1     3    10    12
 1.4671723000e-03     1     3    10    13
-2.6225310000e-04     1     3    11     1
-3.2237400000e-05     1     3    11     2
 1.1790000001e-07     1     3    11     4
-1.8483200000e-05     1     3    11     5
-4.1065100000e-05     1     3    11     6
-5.0374703000e-03     1     3    11     7
 7.1457638000e-03     1     3    11     8
-9.5059700000e-05     1     3    11     9
-1.9915400000e-05     1     3    11    10
 8.4892000000e-06     1     3    11    11
 1.2742129000e-03     1     3    11    12
 1.2716119000e-03     1     3    11    13
 2.9198171700e-02     1     3    12     1
 3.6604062000e-03     1     3    12     2
 2.3421000000e-06     1     3    12     4
 2.0816392000e-03     1     3    12     5
 2.7388923000e-03     1     3    12     6
-8.0179900000e-05     1     3    12     7
 3.8735500000e-05     1     3    12     8
 1.0666696800e-02     1     3    12     9
 1.3886982000e-03     1     3    12    10
-1.3299254000e-03     1     3    12    11
-1.4101700000e-05     1     3    12    12
 1.1584600000e-05     1     3    12    13
-5.5452259000e-03     1     3    13     1
-6.9408540000e-04     1     3    13     2
-2.7121000000e-06     1     3    13     4
-3.9855560000e-04     1     3    13     5
-5.1888430000e-04     1     3    13     6
-3.9657000000e-06     1     3    13     7
 1.0242400000e-05     1     3    13     8
-2.0021727000e-03     1     3    13     9
-1.1871156000e-03     1     3    13    10
-8.5272070000e-04     1     3    13    11
-2.1339400000e-05     1     3    13    12
 7.1735000000e-06     1     3    13    13
-1.3432000000e-06     1     4     2     1
-4.3822000000e-06     1     4     2     2
-2.9750000000e-07     1     4     2     3
-1.0307000000e-06     1     4     2     5
 9.8720000000e-06     1     4     2     6
-4.0585659100e-02     1     4     2     7
 1.3804268700e-02     1     4     2     8
 1.6640500000e-05     1     4     2     9
-1.8903600000e-05     1     4     2    10
-4.5490300000e-05     1     4     2    11
 2.5535024000e-03     1     4     2    12
 1.3407971300e-02     1     4     2    13
 2.1300000000e-08     1     4     3     1
-1.4610000000e-07     1     4     3     2
-3.2508000000e-06     1     4     3     3
 8.9000000000e-09     1     4     3     5
 2.1180000000e-07     1     4     3     6
 8.5588000000e-06     1     4     3     7
-1.5428300000e-05     1     4     3     8
 5.9094630000e-04     1     4     3     9
-2.6857608400e-02     1     4     3    10
-3.2048291500e-02     1     4     3    11
-4.6421470000e-04     1     4     3    12
-2.3423500000e-05     1     4     3    13
-1.7063974310e-01     1     4     4     1
-1.0261268220e-01     1     4     4     2
-2.9066000000e-06     1     4     4     3
 4.1912039000e-03     1     4     4     5
-2.0203160200e-02     1     4     4     6
-5.8189100000e-05     1     4     4     7
-4.4484400000e-05     1     4     4     8
-1.3828673500e-02     1     4     4     9
 3.1171136700e-02     1     4     4    10
-2.6352962700e-02     1     4     4    11
-8.6057200000e-05     1     4     4    12
-1.0972280000e-04     1     4     4    13
-1.7326300000e-05     1     4     5     1
-1.3528000000e-06     1     4     5     2
 1.5000000000e-08     1     4     5     3
-6.8880000000e-06     1     4     5     5
-9.4313000000e-06     1     4     5     6
-1.3776260700e-02     1     4     5     7
 4.6964485000e-03     1     4     5     8
 5.3062000000e-05     1     4     5     9
 1.8214400000e-05     1     4     5    10
 1.2904820000e-04     1     4     5    11
-7.9670146000e-03     1     4     5    12
-4.1819935400e-02     1     4     5    13
-2.2602100000e-05     1     4     6     1
-3.9821000000e-06     1     4     6     2
 1.8460000000e-07     1     4     6     3
 7.8780000000e-07     1     4     6     5
-5.5388000000e-06     1     4     6     6
-7.7996873000e-03     1     4     6     7
 2.6547561000e-03     1     4     6     8
-1.1819000000e-06     1     4     6     9
-1.7222300000e-05     1     4     6    10
-2.7471600000e-05     1     4     6    11
 4.6904930000e-04     1     4     6    12
 2.4681359000e-03     1     4     6    13
 7.7854844400e-02     1     4     7     1
 1.2309912100e-02     1     4     7     2
 8.0070000000e-07     1     4     7     3
 2.7834980000e-04     1     4     7     5
 1.8080756500e-02     1     4     7     6
 4.8268000000e-06     1     4     7     7
 6.6555700000e-05     1     4     7     8
 1.1316330000e-04     1     4     7     9
-4.1255034000e-03     1     4     7    10
 6.2725447000e-03     1     4     7    11
 5.9175400000e-05     1     4     7    12
 3.8114600000e-05     1     4     7    13
-2.6475388600e-02     1     4     8     1
-4.1843680000e-03     1     4     8     2
 4.0210000000e-07     1     4     8     3
-9.3604400000e-05     1     4     8     5
-6.1485857000e-03     1     4     8     6
-2.8352300000e-05     1     4     8     7
-2.1101100000e-05     1     4     8     8
-1.8149960000e-04     1     4     8     9
 6.1430220000e-03     1     4     8    10
 3.4200327000e-03     1     4     8    11
 7.2941900000e-05     1     4     8    12
 2.7236000000e-06     1     4     8    13
-2.0349000000e-05     1     4     9     1
 6.9030000000e-07     1     4     9     2
 1.0100000000e-08     1     4     9     3
-7.1790000000e-07     1     4     9     5
-7.6002000000e-06     1     4     9     6
-4.0173132000e-03     1     4     9     7
 1.4681595000e-03     1     4     9     8
 4.0215000000e-06     1     4     9     9
-2.7067000000e-06     1     4     9    10
-1.3419400000e-05     1     4     9    11
 7.3111780000e-04     1     4     9    12
 3.7308273000e-03     1     4     9    13
 4.3053700000e-05     1     4    10     1
 5.5121000000e-06     1     4    10     2
-4.1580000000e-07     1     4    10     3
 3.9571000000e-06     1     4    10     5
 2.2874700000e-05     1     4    10     6
 3.6426416000e-03     1     4    10     7
-7.3867865000e-03     1     4    10     8
 1.0039100000e-05     1     4    10     9
-7.1325000000e-06     1     4    10    10
 5.9965000000e-06     1     4    10    11
-1.4189338000e-03     1     4    10    12
-7.8266930000e-04     1     4    10    13
 9.8976100000e-05     1     4    11     1
 1.2112500000e-05     1     4    11     2
-1.1790000001e-07     1     4    11     3
 6.0436000000e-06     1     4    11     5
 3.3653700000e-05     1     4    11     6
-7.0821773000e-03     1     4    11     7
-5.0592478000e-03     1     4    11     8
 4.4023300000e-05     1     4    11     9
-2.5428000000e-06     1     4    11    10
-6.6132000000e-06     1     4    11    11
-1.2849727000e-03     1     4    11    12
 1.2033788000e-03     1     4    11    13
-5.5586286000e-03     1     4    12     1
-6.9623480000e-04     1     4    12     2
-2.3421000000e-06     1     4    12     3
-3.9852310000e-04     1     4    12     5
-5.2120140000e-04     1     4    12     6
-3.3833700000e-05     1     4    12     7
-8.9234800000e-05     1     4    12     8
-2.0841043000e-03     1     4    12     9
 1.0721312000e-03     1     4    12    10
 8.8062240000e-04     1     4    12    11
-3.7400000000e-08     1     4    12    12
 2.7686600000e-05     1     4    12    13
-2.9188677500e-02     1     4    13     1
-3.6588745000e-03     1     4    13     2
 2.7121000000e-06     1     4    13     3
-2.0818548000e-03     1     4    13     5
-2.7371262000e-03     1     4    13     6
-1.9754400000e-05     1     4    13     7
-1.1774500000e-05     1     4    13     8
-1.0787554100e-02     1     4    13     9
 7.7808110000e-04     1     4    13    10
-1.1812778000e-03     1     4    13    11
-2.5887000000e-06     1     4    13    12
 3.1778000000e-06     1     4    13    13
-2.8172457000e-03     1     5     2     1
-5.1814728000e-03     1     5     2     2
-7.3790000000e-07     1     5     2     3
 1.0307000000e-06     1     5     2     4
 7.4082242000e-03     1     5     2     6
 2.3884000000e-06     1     5     2     7
 3.7404000000e-06     1     5     2     8
-3.7109070100e-02     1     5     2     9
-1.1429854000e-03     1     5     2    10
 2.8062830000e-04     1     5     2    11
-4.4266300000e-05     1     5     2    12
 1.2473000000e-05     1     5     2    13
 1.4437900000e-05     1     5     3     1
 2.6420000000e-07     1     5     3     2
-4.1909228000e-03     1     5     3     3
-8.9000000000e-09     1     5     3     4
 6.4634400000e-05     1     5     3     6
-4.7840592000e-03     1     5     3     7
-1.4061164500e-02     1     5     3     8
-1.0294560000e-04     1     5     3     9
-2.9474460000e-04     1     5     3    10
-3.1358130000e-04     1     5     3    11
 3.9733721000e-02     1     5     3    12
-7.5722631000e-03     1     5     3    13
-1.7326300000e-05     1     5     4     1
-3.2210000000e-07     1     5     4     2
 6.1000000000e-09     1     5     4     3
-4.1912039000e-03     1     5     4     4
-1.0219100000e-05     1     5     4     6
-1.4054610500e-02     1     5     4     7
 4.7900529000e-03     1     5     4     8
 5.3779900000e-05     1     5     4     9
 1.4257300000e-05     1     5     4    10
 1.2300460000e-04     1     5     4    11
-7.5684915000e-03     1     5     4    12
-3.9738080600e-02     1     5     4    13
-2.0241802630e-01     1     5     5     1
-1.0918539460e-01     1     5     5     2
-6.0958000000e-06     1     5     5     3
 6.8880000000e-06     1     5     5     4
-3.3985295200e-02     1     5     5     6
 2.1853000000e-06     1     5     5     7
-1.6229310000e-04     1     5     5     8
 2.1245018900e-02     1     5     5     9
 6.3747250000e-04     1     5     5    10
-1.6937800000e-04     1     5     5    11
 2.2954580000e-04     1     5     5    12
 9.2055400000e-05     1     5     5    13
-1.7854465700e-02     1     5     6     1
-2.5862686000e-03     1     5     6     2
 1.6685000000e-06     1     5     6     3
-7.8780000000e-07     1     5     6     4
-3.9321642000e-03     1     5     6     6
-5.1556000000e-06     1     5     6     7
 1.2608400000e-05     1     5     6     8
-1.8636951600e-02     1     5     6     9
-4.9725220000e-04     1     5     6    10
 1.2170480000e-04     1     5     6    11
 2.3371200000e-05     1     5     6    12
 8.5000000000e-09     1     5     6    13
 2.0179000000e-06     1     5     7     1
 3.9904000000e-06     1     5     7     2
-9.3782500000e-05     1     5     7     3
-2.7834980000e-04     1     5     7     4
 3.6354000000e-06     1     5     7     6
-6.4582868000e-03     1     5     7     7
-2.2459000000e-06     1     5     7     8
-1.3309300000e-05     1     5     7     9
 1.5485100000e-05     1     5     7    10
-2.3631000000e-06     1     5     7    11
-1.5823586000e-03     1     5     7    12
 1.1292214900e-02     1     5     7    13
-2.7941200000e-05     1     5     8     1
-7.4930000000e-06     1     5     8     2
-2.7778300000e-04     1     5     8     3
 9.3604400000e-05     1     5     8     4
 1.8536300000e-05     1     5     8     6
 2.3676000000e-06     1     5     8     7
-6.4582756000e-03     1     5     8     8
-4.0391000000e-05     1     5     8     9
 7.1323200000e-05     1     5     8    10
 9.0669400000e-05     1     5     8    11
-1.1290837100e-02     1     5     8    12
-1.5827141000e-03     1     5     8    13
 8.0076577100e-02     1     5     9     1
 1.5503965500e-02     1     5     9     2
 3.2178000000e-06     1     5     9     3
 7.1790000000e-07     1     5     9     4
 8.7406130000e-03     1     5     9     6
 1.5089000000e-05     1     5     9     7
 1.3584600000e-05     1     5     9     8
-3.2881018000e-03     1     5     9     9
 1.7177890000e-04     1     5     9    10
-4.0777800000e-05     1     5     9    11
-2.6062500000e-05     1     5     9    12
-2.0398200000e-05     1     5     9    13
 2.4957699000e-03     1     5    10     1
 4.7456800000e-04     1     5    10     2
 1.4119200000e-05     1     5    10     3
-3.9571000000e-06     1     5    10     4
 3.2772470000e-04     1     5    10     6
-1.6587800000e-05     1     5    10     7
-4.9991700000e-05     1     5    10     8
 1.6168190000e-04     1     5    10     9
-8.1165331000e-03     1     5    10    10
-1.1815000000e-06     1     5    10    11
-2.1324200000e-05     1     5    10    12
 6.0930000000e-07     1     5    10    13
-6.1379910000e-04     1     5    11     1
-1.1671750000e-04     1     5    11     2
 1.8483200000e-05     1     5    11     3
-6.0436000000e-06     1     5    11     4
-8.0178800000e-05     1     5    11     6
 3.7173000000e-06     1     5    11     7
-5.9007000000e-05     1     5    11     8
-4.1373700000e-05     1     5    11     9
-1.2782000000e-06     1     5    11    10
-8.1219353000e-03     1     5    11    11
-2.3638100000e-05     1     5    11    12
-3.6815000000e-06     1     5    11    13
 1.0520380000e-04     1     5    12     1
 1.7923400000e-05     1     5    12     2
-2.0816392000e-03     1     5    12     3
 3.9852310000e-04     1     5    12     4
-9.9741000000e-06     1     5    12     6
 9.1094640000e-04     1     5    12     7
 6.4430472000e-03     1     5    12     8
 2.8260700000e-05     1     5    12     9
-2.0908400000e-05     1     5    12    10
-2.7151500000e-05     1     5    12    11
-5.6271560000e-03     1     5    12    12
 2.2385000000e-06     1     5    12    13
-2.4647500000e-05     1     5    13     1
-6.3485000000e-06     1     5    13     2
 3.9855560000e-04     1     5    13     3
 2.0818548000e-03     1     5    13     4