&FCI NORB= 13,NELEC=  2,MS2=0,
 ORBSYM=1,1,1,1,1,1,1,1,1,1,1,1,1
 ISYM=1,
&END
 1.2902475500e-02     1     1     2     2
 3.9505887000e-03     1     1     2     3
 3.4269900000e-05     1     1     2     4
-1.6836400000e-05     1     1     2     5
-6.0402989800e-02     1     1     2     6
 3.0207900000e-04     1     1     2     7
-6.7846230000e-04     1     1     2     8
-2.4167605600e-02     1     1     2     9
 3.1520480000e-04     1     1     2    10
 4.7538000000e-06     1     1     2    11
-7.5474000000e-06     1     1     2    12
 7.2751000000e-06     1     1     2    13
 3.9505887000e-03     1     1     3     2
 9.3536015100e-02     1     1     3     3
-8.2732000000e-06     1     1     3     4
 2.7664000000e-06     1     1     3     5
 4.5329264000e-03     1     1     3     6
 1.1639234000e-03     1     1     3     7
-1.6351284000e-03     1     1     3     8
-6.3329376100e-02     1     1     3     9
 3.5975310500e-02     1     1     3    10
-4.4057460000e-04     1     1     3    11
-1.5951700000e-04     1     1     3    12
-3.2078000000e-06     1     1     3    13
 3.4269900000e-05     1     1     4     2
-8.2732000000e-06     1     1     4     3
 9.7657298700e-02     1     1     4     4
 3.3790000000e-07     1     1     4     5
 3.1026100000e-05     1     1     4     6
-5.2664777600e-02     1     1     4     7
-3.3948172800e-02     1     1     4     8
-8.3122900000e-05     1     1     4     9
 8.7181900000e-05     1     1     4    10
 1.8774616700e-02     1     1     4    11
-3.0162845200e-02     1     1     4    12
-2.5181566000e-03     1     1     4    13
-1.6836400000e-05     1     1     5     2
 2.7664000000e-06     1     1     5     3
 3.3790000000e-07     1     1     5     4
 9.7651193600e-02     1     1     5     5
-1.2394400000e-05     1     1     5     6
 3.3931244400e-02     1     1     5     7
-5.2635491300e-02     1     1     5     8
 2.0337448000e-03     1     1     5     9
 6.1901790000e-04     1     1     5    10
 3.0218930700e-02     1     1     5    11
 1.8856692000e-02     1     1     5    12
-1.0816980000e-04     1     1     5    13
-6.0402989800e-02     1     1     6     2
 4.5329264000e-03     1     1     6     3
 3.1026100000e-05     1     1     6     4
-1.2394400000e-05     1     1     6     5
 1.1334340730e-01     1     1     6     6
 9.6988200000e-05     1     1     6     7
-2.1660580000e-04     1     1     6     8
-7.8148591000e-03     1     1     6     9
 1.8348536500e-02     1     1     6    10
-5.0681400000e-04     1     1     6    11
-6.7567170000e-04     1     1     6    12
 3.2004060000e-04     1     1     6    13
 3.0207900000e-04     1     1     7     2
 1.1639234000e-03     1     1     7     3
-5.2664777600e-02     1     1     7     4
 3.3931244400e-02     1     1     7     5
 9.6988200000e-05     1     1     7     6
 1.1791114040e-01     1     1     7     7
-5.3475000000e-06     1     1     7     8
-4.6810000000e-05     1     1     7     9
 4.4737690000e-04     1     1     7    10
 2.7389010000e-04     1     1     7    11
 1.6421930300e-02     1     1     7    12
 9.2017040000e-04     1     1     7    13
-6.7846230000e-04     1     1     8     2
-1.6351284000e-03     1     1     8     3
-3.3948172800e-02     1     1     8     4
-5.2635491300e-02     1     1     8     5
-2.1660580000e-04     1     1     8     6
-5.3475000000e-06     1     1     8     7
 1.1791307820e-01     1     1     8     8
 4.9326400000e-05     1     1     8     9
-7.1369130000e-04     1     1     8    10
-1.6427155100e-02     1     1     8    11
 2.3931410000e-04     1     1     8    12
 6.5556320000e-04     1     1     8    13
-2.4167605600e-02     1     1     9     2
-6.3329376100e-02     1     1     9     3
-8.3122900000e-05     1     1     9     4
 2.0337448000e-03     1     1     9     5
-7.8148591000e-03     1     1     9     6
-4.6810000000e-05     1     1     9     7
 4.9326400000e-05     1     1     9     8
 1.2376181710e-01     1     1     9     9
-1.7027567700e-02     1     1     9    10
 7.0000600000e-04     1     1     9    11
 4.5406180000e-04     1     1     9    12
-3.2590900000e-05     1     1     9    13
 3.1520480000e-04     1     1    10     2
 3.5975310500e-02     1     1    10     3
 8.7181900000e-05     1     1    10     4
 6.1901790000e-04     1     1    10     5
 1.8348536500e-02     1     1    10     6
 4.4737690000e-04     1     1    10     7
-7.1369130000e-04     1     1    10     8
-1.7027567700e-02     1     1    10     9
 1.4439052690e-01     1     1    10    10
 3.0953900000e-05     1     1    10    11
 2.5083100000e-05     1     1    10    12
 1.8261000000e-06     1     1    10    13
 4.7538000000e-06     1     1    11     2
-4.4057460000e-04     1     1    11     3
 1.8774616700e-02     1     1    11     4
 3.0218930700e-02     1     1    11     5
-5.0681400000e-04     1     1    11     6
 2.7389010000e-04     1     1    11     7
-1.6427155100e-02     1     1    11     8
 7.0000600000e-04     1     1    11     9
 3.0953900000e-05     1     1    11    10
 1.4426947070e-01     1     1    11    11
 1.4170100000e-05     1     1    11    12
-2.0508120000e-04     1     1    11    13
-7.5474000000e-06     1     1    12     2
-1.5951700000e-04     1     1    12     3
-3.0162845200e-02     1     1    12     4
 1.8856692000e-02     1     1    12     5
-6.7567170000e-04     1     1    12     6
 1.6421930300e-02     1     1    12     7
 2.3931410000e-04     1     1    12     8
 4.5406180000e-04     1     1    12     9
 2.5083100000e-05     1     1    12    10
 1.4170100000e-05     1     1    12    11
 1.4426832820e-01     1     1    12    12
 3.0135310000e-04     1     1    12    13
 7.2751000000e-06     1     1    13     2
-3.2078000000e-06     1     1    13     3
-2.5181566000e-03     1     1    13     4
-1.0816980000e-04     1     1    13     5
 3.2004060000e-04     1     1    13     6
 9.2017040000e-04     1     1    13     7
 6.5556320000e-04     1     1    13     8
-3.2590900000e-05     1     1    13     9
 1.8261000000e-06     1     1    13    10
-2.0508120000e-04     1     1    13    11
 3.0135310000e-04     1     1    13    12
 1.3628906560e-01     1     1    13    13
-1.2902475500e-02     1     2     2     1
 2.5546128500e-02     1     2     2     3
 1.4735970000e-04     1     2     2     4
-3.9598400000e-05     1     2     2     5
 4.3416364200e-02     1     2     2     6
-7.2615100000e-05     1     2     2     7
 1.7731610000e-04     1     2     2     8
 6.2940784000e-03     1     2     2     9
 2.9732123000e-03     1     2     2    10
-5.7743500000e-05     1     2     2    11
-6.4275800000e-05     1     2     2    12
 2.0452100000e-05     1     2     2    13
-3.9505887000e-03     1     2     3     1
-8.1797219000e-02     1     2     3     3
-1.6479000000e-05     1     2     3     4
 5.6336000000e-06     1     2     3     5
 4.9745482000e-03     1     2     3     6
-9.4154850000e-04     1     2     3     7
 1.3149198000e-03     1     2     3     8
 5.0606758700e-02     1     2     3     9
-7.0889731000e-03     1     2     3    10
 4.7438600000e-05     1     2     3    11
-1.8342400000e-05     1     2     3    12
 1.9832400000e-05     1     2     3    13
-3.4269900000e-05     1     2     4     1
-1.5670400000e-05     1     2     4     3
-8.1425272900e-02     1     2     4     4
-2.7270000000e-07     1     2     4     5
 2.5098900000e-05     1     2     4     6
 4.3353817600e-02     1     2     4     7
 2.7947340300e-02     1     2     4     8
 6.1162100000e-05     1     2     4     9
-1.4560600000e-05     1     2     4    10
-4.9453988000e-03     1     2     4    11
 7.9413321000e-03     1     2     4    12
 6.6608400000e-04     1     2     4    13
 1.6836400000e-05     1     2     5     1
 4.8028000000e-06     1     2     5     3
-6.6600000000e-08     1     2     5     4
-8.1421827800e-02     1     2     5     5
-3.8954000000e-06     1     2     5     6
-2.7932483700e-02     1     2     5     7
 4.3332278300e-02     1     2     5     8
-1.6598184000e-03     1     2     5     9
-1.9489820000e-04     1     2     5    10
-7.9598588000e-03     1     2     5    11
-4.9636374000e-03     1     2     5    12
 3.2985700000e-05     1     2     5    13
 6.0402989800e-02     1     2     6     1
 6.4216850000e-04     1     2     6     3
-1.2339000000e-06     1     2     6     4
 3.6423000000e-06     1     2     6     5
-7.3262955900e-02     1     2     6     6
-1.8793430000e-04     1     2     6     7
 4.2363040000e-04     1     2     6     8
 1.5594950200e-02     1     2     6     9
-1.3485719900e-02     1     2     6    10
 3.6315310000e-04     1     2     6    11
 4.9564250000e-04     1     2     6    12
-2.3085640000e-04     1     2     6    13
-3.0207900000e-04     1     2     7     1
-5.3465500000e-04     1     2     7     3
 2.5259217400e-02     1     2     7     4
-1.6273371000e-02     1     2     7     5
-8.2643400000e-05     1     2     7     6
-7.9699199800e-02     1     2     7     7
 3.2700000000e-06     1     2     7     8
 2.7265300000e-05     1     2     7     9
-2.9837530000e-04     1     2     7    10
-1.9903470000e-04     1     2     7    11
-1.1801283500e-02     1     2     7    12
-6.7405370000e-04     1     2     7    13
 6.7846230000e-04     1     2     8     1
 7.3414120000e-04     1     2     8     3
 1.6281554300e-02     1     2     8     4
 2.5246690500e-02     1     2     8     5
 1.8568100000e-04     1     2     8     6
 3.7282000000e-06     1     2     8     7
-7.9699137200e-02     1     2     8     8
-1.4898200000e-05     1     2     8     9
 4.6958180000e-04     1     2     8    10
 1.1805814700e-02     1     2     8    11
-1.7188420000e-04     1     2     8    12
-4.8359780000e-04     1     2     8    13
 2.4167605600e-02     1     2     9     1
 2.8381586100e-02     1     2     9     3
 2.8369000000e-05     1     2     9     4
-9.6580060000e-04     1     2     9     5
 6.9809380000e-03     1     2     9     6
 2.6661800000e-05     1     2     9     7
-1.5420400000e-05     1     2     9     8
-8.3321398600e-02     1     2     9     9
 1.0692228000e-02     1     2     9    10
-4.5076510000e-04     1     2     9    11
-2.5371600000e-04     1     2     9    12
-2.2612000000e-05     1     2     9    13
-3.1520480000e-04     1     2    10     1
-4.2677500000e-03     1     2    10     3
-8.2021000000e-06     1     2    10     4
-1.2034910000e-04     1     2    10     5
-1.0325870500e-02     1     2    10     6
-3.7799110000e-04     1     2    10     7
 6.0180880000e-04     1     2    10     8
 1.4220954900e-02     1     2    10     9
-9.8474622600e-02     1     2    10    10
-5.2223300000e-05     1     2    10    11
-4.1645300000e-05     1     2    10    12
 6.0381000000e-06     1     2    10    13
-4.7538000000e-06     1     2    11     1
 2.3798600000e-05     1     2    11     3
-3.0599473000e-03     1     2    11     4
-4.9251937000e-03     1     2    11     5
 2.9167250000e-04     1     2    11     6
-2.4482120000e-04     1     2    11     7
 1.4669608200e-02     1     2    11     8
-5.8026610000e-04     1     2    11     9
-4.8670000000e-05     1     2    11    10
-9.9510412800e-02     1     2    11    11
-1.5926100000e-05     1     2    11    12
 2.3293050000e-04     1     2    11    13
 7.5474000000e-06     1     2    12     1
-2.1187700000e-05     1     2    12     3
 4.9137124000e-03     1     2    12     4
-3.0711144000e-03     1     2    12     5
 3.9801960000e-04     1     2    12     6
-1.4668094900e-02     1     2    12     7
-2.1275940000e-04     1     2    12     8
-3.3706830000e-04     1     2    12     9
-3.6704600000e-05     1     2    12    10
-1.5756100000e-05     1     2    12    11
-9.9507470900e-02     1     2    12    12
-3.4121190000e-04     1     2    12    13
-7.2751000000e-06     1     2    13     1
 1.8978700000e-05     1     2    13     3
 4.1245490000e-04     1     2    13     4
 2.0288400000e-05     1     2    13     5
-1.8829290000e-04     1     2    13     6
-8.3999710000e-04     1     2    13     7
-5.9948610000e-04     1     2    13     8
-1.3550100000e-05     1     2    13     9
 3.7349000000e-06     1     2    13    10
 2.3145330000e-04     1     2    13    11
-3.3953030000e-04     1     2    13    12
-9.2263556100e-02     1     2    13    13
-3.9505887000e-03     1     3     2     1
-2.5546128500e-02     1     3     2     2
-8.0860000000e-07     1     3     2     4
 8.3080000000e-07     1     3     2     5
 4.3323797000e-03     1     3     2     6
-4.0689350000e-04     1     3     2     7
 5.8077860000e-04     1     3     2     8
 2.2225172600e-02     1     3     2     9
-2.8212231000e-03     1     3     2    10
 2.3640000000e-05     1     3     2    11
 2.8453000000e-06     1     3     2    12
 8.5370000000e-07     1     3     2    13
-9.3536015100e-02     1     3     3     1
 8.1797219000e-02     1     3     3     2
 2.2654340000e-04     1     3     3     4
-7.0586000000e-05     1     3     3     5
-2.9918574600e-02     1     3     3     6
-1.3707550000e-04     1     3     3     7
 2.6166160000e-04     1     3     3     8
 1.0380774200e-02     1     3     3     9
-4.1554881400e-02     1     3     3    10
 6.6074730000e-04     1     3     3    11
 1.4080830000e-04     1     3     3    12
-8.3948600000e-05     1     3     3    13
 8.2732000000e-06     1     3     4     1
 1.5670400000e-05     1     3     4     2
-3.7722419300e-02     1     3     4     4
-1.0940000000e-07     1     3     4     5
-6.7992000000e-06     1     3     4     6
 2.2911899000e-03     1     3     4     7
 1.4746161000e-03     1     3     4     8
 4.5408000000e-06     1     3     4     9
-2.0967150000e-04     1     3     4    10
-1.8383213000e-02     1     3     4    11
 2.9533280000e-02     1     3     4    12
 2.3620810000e-03     1     3     4    13
-2.7664000000e-06     1     3     5     1
-4.8028000000e-06     1     3     5     2
 1.0300000000e-07     1     3     5     4
-3.7721748800e-02     1     3     5     5
 3.0419000000e-06     1     3     5     6
-1.4762587000e-03     1     3     5     7
 2.2870071000e-03     1     3     5     8
-1.1264320000e-04     1     3     5     9
-5.2495860000e-04     1     3     5    10
-2.9572377200e-02     1     3     5    11
-1.8468877700e-02     1     3     5    12
 2.8425140000e-04     1     3     5    13
-4.5329264000e-03     1     3     6     1
-6.4216850000e-04     1     3     6     2
-5.1640000000e-07     1     3     6     4
 6.3300000000e-07     1     3     6     5
-3.7141908700e-02     1     3     6     6
 3.0041970000e-04     1     3     6     7
-4.1546720000e-04     1     3     6     8
-1.6535678000e-02     1     3     6     9
-4.4438960000e-04     1     3     6    10
 5.6254900000e-05     1     3     6    11
 9.6069400000e-05     1     3     6    12
-4.7577800000e-05     1     3     6    13
-1.1639234000e-03     1     3     7     1
 5.3465500000e-04     1     3     7     2
 2.4599160000e-03     1     3     7     4
-1.5851599000e-03     1     3     7     5
-1.7623970000e-04     1     3     7     6
-3.9675719600e-02     1     3     7     7
-9.3070000000e-07     1     3     7     8
-3.8732400000e-05     1     3     7     9
-3.4632450000e-04     1     3     7    10
-1.6936210000e-04     1     3     7    11
-1.0852176900e-02     1     3     7    12
-5.6328290000e-04     1     3     7    13
 1.6351284000e-03     1     3     8     1
-7.3414120000e-04     1     3     8     2
 1.5852637000e-03     1     3     8     4
 2.4584202000e-03     1     3     8     5
 2.3688280000e-04     1     3     8     6
-5.8060000000e-07     1     3     8     7
-3.9674578100e-02     1     3     8     8
 5.4812600000e-05     1     3     8     9
 5.7239890000e-04     1     3     8    10
 1.0844725000e-02     1     3     8    11
-1.5363370000e-04     1     3     8    12
-4.4544080000e-04     1     3     8    13
 6.3329376100e-02     1     3     9     1
-2.8381586100e-02     1     3     9     2
-1.4838500000e-05     1     3     9     4
-8.8153300000e-05     1     3     9     5
 8.8585013000e-03     1     3     9     6
-2.4966200000e-05     1     3     9     7
 6.0536800000e-05     1     3     9     8
-3.7939067500e-02     1     3     9     9
 1.5042697000e-02     1     3     9    10
-5.6080350000e-04     1     3     9    11
-3.6579880000e-04     1     3     9    12
 9.2507700000e-05     1     3     9    13
-3.5975310500e-02     1     3    10     1
 4.2677500000e-03     1     3    10     2
 6.3704000000e-06     1     3    10     4
-3.1353200000e-05     1     3    10     5
-1.2562615000e-03     1     3    10     6
-2.8450800000e-05     1     3    10     7
 1.9821800000e-05     1     3    10     8
 3.4381100000e-04     1     3    10     9
-3.7290989200e-02     1     3    10    10
 4.3617300000e-05     1     3    10    11
 7.0081000000e-06     1     3    10    12
-2.1465600000e-05     1     3    10    13
 4.4057460000e-04     1     3    11     1
-2.3798600000e-05     1     3    11     2
-8.8736580000e-04     1     3    11     4
-1.4313996000e-03     1     3    11     5
 2.9552300000e-05     1     3    11     6
 5.4347000000e-06     1     3    11     7
-2.1976050000e-04     1     3    11     8
-3.0183000000e-06     1     3    11     9
 1.8728300000e-05     1     3    11    10
-3.5689990700e-02     1     3    11    11
-5.3110000000e-07     1     3    11    12
-2.9606100000e-05     1     3    11    13
 1.5951700000e-04     1     3    12     1
 2.1187700000e-05     1     3    12     2
 1.4287706000e-03     1     3    12     4
-8.9123700000e-04     1     3    12     5
 3.9392100000e-05     1     3    12     6
 2.2250800000e-04     1     3    12     7
 3.2925000000e-06     1     3    12     8
-4.7024000000e-05     1     3    12     9
 4.9671900000e-05     1     3    12    10
 3.6947000000e-06     1     3    12    11
-3.5690380100e-02     1     3    12    12
 6.3715300000e-05     1     3    12    13
 3.2078000000e-06     1     3    13     1
-1.8978700000e-05     1     3    13     2
 1.2040180000e-04     1     3    13     4
 5.0579000000e-06     1     3    13     5
-2.2387000000e-05     1     3    13     6
 1.4525400000e-05     1     3    13     7
 2.8986500000e-05     1     3    13     8
 2.8549800000e-05     1     3    13     9
-7.4817000000e-06     1     3    13    10
-4.8313600000e-05     1     3    13    11
 2.8894500000e-05     1     3    13    12
-3.5773292700e-02     1     3    13    13
-3.4269900000e-05     1     4     2     1
-1.4735970000e-04     1     4     2     2
 8.0860000000e-07     1     4     2     3
-2.0610000000e-07     1     4     2     5
 2.6332800000e-05     1     4     2     6
 1.8094600200e-02     1     4     2     7
 1.1665786000e-02     1     4     2     8
 3.2793100000e-05     1     4     2     9
-6.3585000000e-06     1     4     2    10
-1.8854515000e-03     1     4     2    11
 3.0276197000e-03     1     4     2    12
 2.5362910000e-04     1     4     2    13
 8.2732000000e-06     1     4     3     1
 1.6479000000e-05     1     4     3     2
-2.2654340000e-04     1     4     3     3
-2.1240000000e-07     1     4     3     5
-6.2828000000e-06     1     4     3     6
-1.6872610000e-04     1     4     3     7
-1.1064760000e-04     1     4     3     8
 1.9379300000e-05     1     4     3     9
-2.1604190000e-04     1     4     3    10
-1.7495847200e-02     1     4     3    11
 2.8104509400e-02     1     4     3    12
 2.2416792000e-03     1     4     3    13
-9.7657298700e-02     1     4     4     1
 8.1425272900e-02     1     4     4     2
 3.7722419300e-02     1     4     4     3
-7.1306200000e-05     1     4     4     5
-2.9475611100e-02     1     4     4     6
-6.8483000000e-05     1     4     4     7
 2.0461710000e-04     1     4     4     8
 6.6490364000e-03     1     4     4     9
 1.6189570500e-02     1     4     4    10
 1.1540936000e-03     1     4     4    11
-4.4940130000e-04     1     4     4    12
 2.9689975000e-03     1     4     4    13
-3.3790000000e-07     1     4     5     1
 6.6600000000e-08     1     4     5     2
-1.0300000000e-07     1     4     5     3
-2.2897870000e-04     1     4     5     5
-1.0200000000e-07     1     4     5     6
-9.9171000000e-06     1     4     5     7
 2.0591100000e-05     1     4     5     8
-9.1730000000e-07     1     4     5     9
 6.6327200000e-05     1     4     5    10
-1.2872533000e-03     1     4     5    11
 1.6655254000e-03     1     4     5    12
-3.2140032800e-02     1     4     5    13
-3.1026100000e-05     1     4     6     1
 1.2339000000e-06     1     4     6     2
 5.1640000000e-07     1     4     6     3
 8.9400000000e-08     1     4     6     5
-2.2579480000e-04     1     4     6     6
-1.4105811000e-02     1     4     6     7
-9.0944235000e-03     1     4     6     8
-1.6483600000e-05     1     4     6     9
-9.3399000000e-06     1     4     6    10
 1.8683435000e-03     1     4     6    11
-2.9989647000e-03     1     4     6    12
-2.4133010000e-04     1     4     6    13
 5.2664777600e-02     1     4     7     1
-2.5259217400e-02     1     4     7     2
-2.4599160000e-03     1     4     7     3
-4.9317000000e-06     1     4     7     5
 8.3914008000e-03     1     4     7     6
-2.5355100000e-04     1     4     7     7
 4.6089800000e-05     1     4     7     8
 1.5244793000e-03     1     4     7     9
 1.1443650000e-04     1     4     7    10
-5.9222790000e-04     1     4     7    11
 2.7099400000e-04     1     4     7    12
-4.3538094000e-03     1     4     7    13
 3.3948172800e-02     1     4     8     1
-1.6281554300e-02     1     4     8     2
-1.5852637000e-03     1     4     8     3
 1.9021700000e-05     1     4     8     5
 5.4083710000e-03     1     4     8     6
-1.7733000000e-05     1     4     8     7
-2.1350410000e-04     1     4     8     8
 9.8230580000e-04     1     4     8     9
 5.6884700000e-05     1     4     8    10
 1.3778090000e-04     1     4     8    11
-5.1486610000e-04     1     4     8    12
 5.6384170000e-03     1     4     8    13
 8.3122900000e-05     1     4     9     1
-2.8369000000e-05     1     4     9     2
 1.4838500000e-05     1     4     9     3
-7.8670000000e-07     1     4     9     5
 7.4812000000e-06     1     4     9     6
-2.5424920000e-04     1     4     9     7
-1.6364990000e-04     1     4     9     8
-2.3811510000e-04     1     4     9     9
 6.4134500000e-05     1     4     9    10
 3.6907351000e-03     1     4     9    11
-5.9324878000e-03     1     4     9    12
-6.6978260000e-04     1     4     9    13
-8.7181900000e-05     1     4    10     1
 8.2021000000e-06     1     4    10     2
-6.3704000000e-06     1     4    10     3
-2.4640000000e-07     1     4    10     5
-7.6816000000e-06     1     4    10     6
 1.8801537000e-03     1     4    10     7
 1.2165903000e-03     1     4    10     8
-2.7418000000e-06     1     4    10     9
-2.1771540000e-04     1     4    10    10
-2.3768266000e-03     1     4    10    11
 3.8007817000e-03     1     4    10    12
 2.5387050000e-04     1     4    10    13
-1.8774616700e-02     1     4    11     1
 3.0599473000e-03     1     4    11     2
 8.8736580000e-04     1     4    11     3
-1.0651300000e-05     1     4    11     5
 2.3134800000e-05     1     4    11     6
 8.5135100000e-05     1     4    11     7
-1.0243050000e-04     1     4    11     8
-1.4920826000e-03     1     4    11     9
 2.5400612000e-03     1     4    11    10
-1.8171930000e-04     1     4    11    11
 2.3343650000e-04     1     4    11    12
-1.5716032000e-03     1     4    11    13
 3.0162845200e-02     1     4    12     1
-4.9137124000e-03     1     4    12     2
-1.4287706000e-03     1     4    12     3
-3.2446000000e-06     1     4    12     5
-3.7224500000e-05     1     4    12     6
-2.1131020000e-04     1     4    12     7
 1.0917890000e-04     1     4    12     8
 2.3976672000e-03     1     4    12     9
-4.0721296000e-03     1     4    12    10
-2.3088110000e-04     1     4    12    11
-2.9883380000e-04     1     4    12    12
-1.2418604000e-03     1     4    12    13
 2.5181566000e-03     1     4    13     1
-4.1245490000e-04     1     4    13     2
-1.2040180000e-04     1     4    13     3
 2.3680000000e-07     1     4    13     5
 2.0838000000e-06     1     4    13     6
 1.7413887000e-03     1     4    13     7
-2.2102835000e-03     1     4    13     8
 3.1055480000e-04     1     4    13     9
-2.7012970000e-04     1     4    13    10
 3.3791607000e-03     1     4    13    11
 2.5144877000e-03     1     4    13    12
-2.1376240000e-04     1     4    13    13
 1.6836400000e-05     1     5     2     1
 3.9598400000e-05     1     5     2     2
-8.3080000000e-07     1     5     2     3
 2.0610000000e-07     1     5     2     4
-7.5377000000e-06     1     5     2     6
-1.1659112700e-02     1     5     2     7
 1.8085587800e-02     1     5     2     8
-6.9401780000e-04     1     5     2     9
-7.4549100000e-05     1     5     2    10
-3.0346651000e-03     1     5     2    11
-1.8925230000e-03     1     5     2    12
 1.2697300000e-05     1     5     2    13
-2.7664000000e-06     1     5     3     1
-5.6336000000e-06     1     5     3     2
 7.0586000000e-05     1     5     3     3
 2.1240000000e-07     1     5     3     4
 2.4089000000e-06     1     5     3     6
 1.0890120000e-04     1     5     3     7
-1.7141310000e-04     1     5     3     8
-2.4489900000e-05     1     5     3     9
-4.9360540000e-04     1     5     3    10
-2.8140977600e-02     1     5     3    11
-1.7577640700e-02     1     5     3    12
 2.7919350000e-04     1     5     3    13
-3.3790000000e-07     1     5     4     1
 2.7270000000e-07     1     5     4     2
 1.0940000000e-07     1     5     4     3
 7.1306200000e-05     1     5     4     4
-1.9140000000e-07     1     5     4     6
-4.9854000000e-06     1     5     4     7
 1.5694000000e-06     1     5     4     8
-1.3060000000e-07     1     5     4     9
 6.6573600000e-05     1     5     4    10
-1.2766020000e-03     1     5     4    11
 1.6687700000e-03     1     5     4    12
-3.2140269600e-02     1     5     4    13
-9.7651193600e-02     1     5     5     1
 8.1421827800e-02     1     5     5     2
 3.7721748800e-02     1     5     5     3
 2.2897870000e-04     1     5     5     4
-2.9474088700e-02     1     5     5     6
-7.4847800000e-05     1     5     5     7
 1.9355590000e-04     1     5     5     8
 6.6501931000e-03     1     5     5     9
 1.5773156700e-02     1     5     5    10
-1.6144279000e-03     1     5     5    11
 5.7847420000e-04     1     5     5    12
-2.9954681000e-03     1     5     5    13
 1.2394400000e-05     1     5     6     1
-3.6423000000e-06     1     5     6     2
-6.3300000000e-07     1     5     6     3
-8.9400000000e-08     1     5     6     4
 7.0382900000e-05     1     5     6     6
 9.0895349000e-03     1     5     6     7
-1.4099434700e-02     1     5     6     8
 5.5864220000e-04     1     5     6     9
 8.9503400000e-05     1     5     6    10
 3.0103969000e-03     1     5     6    11
 1.8724744000e-03     1     5     6    12
-1.7780000000e-05     1     5     6    13
-3.3931244400e-02     1     5     7     1
 1.6273371000e-02     1     5     7     2
 1.5851599000e-03     1     5     7     3
 4.9317000000e-06     1     5     7     4
-5.4059565000e-03     1     5     7     6
 8.3068700000e-05     1     5     7     7
-2.4103400000e-05     1     5     7     8
-9.8241350000e-04     1     5     7     9
-1.4289490000e-04     1     5     7    10
-1.8361600000e-05     1     5     7    11
-2.3107890000e-04     1     5     7    12
 5.5680488000e-03     1     5     7    13
 5.2635491300e-02     1     5     8     1
-2.5246690500e-02     1     5     8     2
-2.4584202000e-03     1     5     8     3
-1.9021700000e-05     1     5     8     4
 8.3873927000e-03     1     5     8     6
-1.3581900000e-05     1     5     8     7
 1.1131370000e-04     1     5     8     8
 1.5234571000e-03     1     5     8     9
 1.9249510000e-04     1     5     8    10
 5.4501360000e-04     1     5     8    11
-3.8318620000e-04     1     5     8    12
 4.4952870000e-03     1     5     8    13
-2.0337448000e-03     1     5     9     1
 9.6580060000e-04     1     5     9     2
 8.8153300000e-05     1     5     9     3
 7.8670000000e-07     1     5     9     4
-3.0851900000e-04     1     5     9     6
 1.6432070000e-04     1     5     9     7
-2.5546180000e-04     1     5     9     8
 2.6552600000e-05     1     5     9     9
 9.6482300000e-05     1     5     9    10
 5.9423562000e-03     1     5     9    11
 3.7288111000e-03     1     5     9    12
-7.9252100000e-05     1     5     9    13
-6.1901790000e-04     1     5    10     1
 1.2034910000e-04     1     5    10     2
 3.1353200000e-05     1     5    10     3
 2.4640000000e-07     1     5    10     4
 3.6265000000e-06     1     5    10     6
-1.1970609000e-03     1     5    10     7
 1.8666399000e-03     1     5    10     8
-1.1733300000e-04     1     5    10     9
 7.0417900000e-05     1     5    10    10
-3.7794514000e-03     1     5    10    11
-2.3469116000e-03     1     5    10    12
 1.5276600000e-05     1     5    10    13
-3.0218930700e-02     1     5    11     1
 4.9251937000e-03     1     5    11     2
 1.4313996000e-03     1     5    11     3
 1.0651300000e-05     1     5    11     4
 3.8834600000e-05     1     5    11     6
 3.4831800000e-05     1     5    11     7
-2.3816760000e-04     1     5    11     8
-2.4015879000e-03     1     5    11     9
 4.0540296000e-03     1     5    11    10
 1.3453840000e-04     1     5    11    11
 8.5402500000e-05     1     5    11    12
-1.2639538000e-03     1     5    11    13
-1.8856692000e-02     1     5    12     1
 3.0711144000e-03     1     5    12     2
 8.9123700000e-04     1     5    12     3
 3.2446000000e-06     1     5    12     4
 2.2457100000e-05     1     5    12     6
 1.6276380000e-04     1     5    12     7
-4.9860000000e-06     1     5    12     8
-1.5000386000e-03     1     5    12     9
 2.5226294000e-03     1     5    12    10
-1.4573270000e-04     1     5    12    11
 1.4662860000e-04     1     5    12    12
 1.5754990000e-03     1     5    12    13
 1.0816980000e-04     1     5    13     1
-2.0288400000e-05     1     5    13     2
-5.0579000000e-06     1     5    13     3
-2.3680000000e-07     1     5    13     4