&FCI NORB= 13,NELEC=  2,MS2=0,
 ORBSYM=1,1,1,1,1,1,1,1,1,1,1,1,1
 ISYM=1,
&END
 1.2309928520e-01     1     1     2     2
 2.3733000000e-06     1     1     2     3
-2.2331700000e-05     1     1     2     4
 1.1225531100e-02     1     1     2     5
-9.4362746200e-02     1     1     2     6
-1.5006240000e-04     1     1     2     7
 1.4567600000e-04     1     1     2     8
 1.3018380300e-02     1     1     2     9
 1.2181660000e-04     1     1     2    10
 1.0151890000e-04     1     1     2    11
-7.6673600000e-05     1     1     2    12
-9.4376480000e-04     1     1     2    13
 2.3733000000e-06     1     1     3     2
 1.5141214670e-01     1     1     3     3
-4.5800000000e-08     1     1     3     4
 5.4390000000e-06     1     1     3     5
 8.8440000000e-06     1     1     3     6
 3.9945409100e-02     1     1     3     7
 5.8348384800e-02     1     1     3     8
-9.3093500000e-05     1     1     3     9
-3.5588500000e-05     1     1     3    10
-2.6532770000e-04     1     1     3    11
-4.1308939400e-02     1     1     3    12
-1.2456293100e-02     1     1     3    13
-2.2331700000e-05     1     1     4     2
-4.5800000000e-08     1     1     4     3
 1.5136726820e-01     1     1     4     4
-2.5483100000e-05     1     1     4     5
 1.6022170000e-04     1     1     4     6
-5.8390342200e-02     1     1     4     7
 3.9964473400e-02     1     1     4     8
 1.2881930000e-04     1     1     4     9
 9.0783300000e-05     1     1     4    10
 2.5279370000e-04     1     1     4    11
 1.2448084400e-02     1     1     4    12
-4.1208061400e-02     1     1     4    13
 1.1225531100e-02     1     1     5     2
 5.4390000000e-06     1     1     5     3
-2.5483100000e-05     1     1     5     4
 1.6745735190e-01     1     1     5     5
-5.9972309000e-03     1     1     5     6
-1.6924760000e-04     1     1     5     7
-3.1910700000e-05     1     1     5     8
-7.7515419200e-02     1     1     5     9
-2.0510900000e-04     1     1     5    10
-1.3193420000e-04     1     1     5    11
 1.3284100000e-04     1     1     5    12
 1.3027566000e-03     1     1     5    13
-9.4362746200e-02     1     1     6     2
 8.8440000000e-06     1     1     6     3
 1.6022170000e-04     1     1     6     4
-5.9972309000e-03     1     1     6     5
 2.1474512060e-01     1     1     6     6
 1.0491500000e-05     1     1     6     7
-1.3095000000e-05     1     1     6     8
-3.9700274000e-03     1     1     6     9
 1.0067100000e-05     1     1     6    10
 1.2611700000e-05     1     1     6    11
 5.2157000000e-06     1     1     6    12
-5.4663800000e-05     1     1     6    13
-1.5006240000e-04     1     1     7     2
 3.9945409100e-02     1     1     7     3
-5.8390342200e-02     1     1     7     4
-1.6924760000e-04     1     1     7     5
 1.0491500000e-05     1     1     7     6
 2.1751405510e-01     1     1     7     7
-5.7577000000e-06     1     1     7     8
-1.4063200000e-05     1     1     7     9
-1.6750400000e-05     1     1     7    10
-5.8881600000e-05     1     1     7    11
-5.9404486000e-03     1     1     7    12
 4.7519171000e-03     1     1     7    13
 1.4567600000e-04     1     1     8     2
 5.8348384800e-02     1     1     8     3
 3.9964473400e-02     1     1     8     4
-3.1910700000e-05     1     1     8     5
-1.3095000000e-05     1     1     8     6
-5.7577000000e-06     1     1     8     7
 2.1751858680e-01     1     1     8     8
 1.6062000000e-06     1     1     8     9
-5.1000000000e-08     1     1     8    10
-1.1156300000e-05     1     1     8    11
-4.7913671000e-03     1     1     8    12
-5.9302822000e-03     1     1     8    13
 1.3018380300e-02     1     1     9     2
-9.3093500000e-05     1     1     9     3
 1.2881930000e-04     1     1     9     4
-7.7515419200e-02     1     1     9     5
-3.9700274000e-03     1     1     9     6
-1.4063200000e-05     1     1     9     7
 1.6062000000e-06     1     1     9     8
 2.4576178200e-01     1     1     9     9
-1.7596400000e-05     1     1     9    10
-4.0778200000e-05     1     1     9    11
 3.4240300000e-05     1     1     9    12
 2.7308300000e-04     1     1     9    13
 1.2181660000e-04     1     1    10     2
-3.5588500000e-05     1     1    10     3
 9.0783300000e-05     1     1    10     4
-2.0510900000e-04     1     1    10     5
 1.0067100000e-05     1     1    10     6
-1.6750400000e-05     1     1    10     7
-5.1000000000e-08     1     1    10     8
-1.7596400000e-05     1     1    10     9
 1.9778777030e-01     1     1    10    10
 4.1700000000e-07     1     1    10    11
 7.6508000000e-06     1     1    10    12
-7.6779000000e-06     1     1    10    13
 1.0151890000e-04     1     1    11     2
-2.6532770000e-04     1     1    11     3
 2.5279370000e-04     1     1    11     4
-1.3193420000e-04     1     1    11     5
 1.2611700000e-05     1     1    11     6
-5.8881600000e-05     1     1    11     7
-1.1156300000e-05     1     1    11     8
-4.0778200000e-05     1     1    11     9
 4.1700000000e-07     1     1    11    10
 1.9780238230e-01     1     1    11    11
 4.6379700000e-05     1     1    11    12
-2.3229800000e-05     1     1    11    13
-7.6673600000e-05     1     1    12     2
-4.1308939400e-02     1     1    12     3
 1.2448084400e-02     1     1    12     4
 1.3284100000e-04     1     1    12     5
 5.2157000000e-06     1     1    12     6
-5.9404486000e-03     1     1    12     7
-4.7913671000e-03     1     1    12     8
 3.4240300000e-05     1     1    12     9
 7.6508000000e-06     1     1    12    10
 4.6379700000e-05     1     1    12    11
 2.0990379340e-01     1     1    12    12
 7.7575000000e-06     1     1    12    13
-9.4376480000e-04     1     1    13     2
-1.2456293100e-02     1     1    13     3
-4.1208061400e-02     1     1    13     4
 1.3027566000e-03     1     1    13     5
-5.4663800000e-05     1     1    13     6
 4.7519171000e-03     1     1    13     7
-5.9302822000e-03     1     1    13     8
 2.7308300000e-04     1     1    13     9
-7.6779000000e-06     1     1    13    10
-2.3229800000e-05     1     1    13    11
 7.7575000000e-06     1     1    13    12
 2.0989185800e-01     1     1    13    13
-1.2309928520e-01     1     2     2     1
 8.7273000000e-06     1     2     2     3
-5.7656100000e-05     1     2     2     4
 2.8266821400e-02     1     2     2     5
-5.8825275800e-02     1     2     2     6
-9.6996400000e-05     1     2     2     7
 7.6081400000e-05     1     2     2     8
-4.7704369000e-03     1     2     2     9
 7.7362700000e-05     1     2     2    10
 7.3466300000e-05     1     2     2    11
-5.6682200000e-05     1     2     2    12
-6.6476200000e-04     1     2     2    13
-2.3733000000e-06     1     2     3     1
 9.2566256900e-02     1     2     3     3
-9.7000000000e-09     1     2     3     4
 1.7867000000e-06     1     2     3     5
 9.5389000000e-06     1     2     3     6
 3.0567102500e-02     1     2     3     7
 4.4649047200e-02     1     2     3     8
-7.6345800000e-05     1     2     3     9
-1.7532100000e-05     1     2     3    10
-1.0095220000e-04     1     2     3    11
-1.5939817600e-02     1     2     3    12
-4.8127376000e-03     1     2     3    13
 2.2331700000e-05     1     2     4     1
-2.8000000000e-08     1     2     4     3
 9.2548571500e-02     1     2     4     4
-4.7236000000e-06     1     2     4     5
 1.0019930000e-04     1     2     4     6
-4.4666267400e-02     1     2     4     7
 3.0576024700e-02     1     2     4     8
 8.9778600000e-05     1     2     4     9
 3.4603800000e-05     1     2     4    10
 9.8268400000e-05     1     2     4    11
 4.7971664000e-03     1     2     4    12
-1.5875079900e-02     1     2     4    13
-1.1225531100e-02     1     2     5     1
 1.1817000000e-06     1     2     5     3
-5.6424000000e-06     1     2     5     4
 9.6503851200e-02     1     2     5     5
 6.2390860000e-03     1     2     5     6
-1.0609330000e-04     1     2     5     7
-2.6458600000e-05     1     2     5     8
-5.5842386000e-02     1     2     5     9
-4.8981600000e-05     1     2     5    10
-5.9279000000e-06     1     2     5    11
 2.0338600000e-05     1     2     5    12
 1.4992290000e-04     1     2     5    13
 9.4362746200e-02     1     2     6     1
 2.0139000000e-06     1     2     6     3
 2.9372500000e-05     1     2     6     4
 1.2023020000e-03     1     2     6     5
 1.0435238040e-01     1     2     6     6
 1.0426400000e-05     1     2     6     7
-7.3721000000e-06     1     2     6     8
 3.3000047000e-03     1     2     6     9
-5.1636000000e-06     1     2     6    10
-5.8592000000e-06     1     2     6    11
 1.1918100000e-05     1     2     6    12
 7.6316600000e-05     1     2     6    13
 1.5006240000e-04     1     2     7     1
 8.4363558000e-03     1     2     7     3
-1.2335468000e-02     1     2     7     4
-3.0103500000e-05     1     2     7     5
 9.6573000000e-06     1     2     7     6
 1.0421985090e-01     1     2     7     7
-5.5554000000e-06     1     2     7     8
 2.1322000000e-06     1     2     7     9
-1.1232300000e-05     1     2     7    10
-3.4845000000e-05     1     2     7    11
-3.2202330000e-03     1     2     7    12
 2.5710242000e-03     1     2     7    13
-1.4567600000e-04     1     2     8     1
 1.2325240400e-02     1     2     8     3
 8.4424855000e-03     1     2     8     4
-7.5693000000e-06     1     2     8     5
-1.4124800000e-05     1     2     8     6
-3.6309000000e-06     1     2     8     7
 1.0422090470e-01     1     2     8     8
-1.6581000000e-06     1     2     8     9
 4.5500000000e-08     1     2     8    10
-6.1853000000e-06     1     2     8    11
-2.5997190000e-03     1     2     8    12
-3.2142431000e-03     1     2     8    13
-1.3018380300e-02     1     2     9     1
-2.0424800000e-05     1     2     9     3
 2.5056800000e-05     1     2     9     4
-1.5552786100e-02     1     2     9     5
-3.0618675000e-03     1     2     9     6
-7.9913000000e-06     1     2     9     7
 7.0120000000e-06     1     2     9     8
 1.2452907300e-01     1     2     9     9
-3.1308000000e-06     1     2     9    10
-2.3059800000e-05     1     2     9    11
 2.0459800000e-05     1     2     9    12
 1.4529170000e-04     1     2     9    13
-1.2181660000e-04     1     2    10     1
-4.5014000000e-06     1     2    10     3
 7.9221000000e-06     1     2    10     4
-1.4539300000e-05     1     2    10     5
-4.7568000000e-06     1     2    10     6
-1.5976500000e-05     1     2    10     7
 1.4986000000e-06     1     2    10     8
 1.2108700000e-05     1     2    10     9
 8.8700152700e-02     1     2    10    10
 3.6380000000e-07     1     2    10    11
 7.1626000000e-06     1     2    10    12
-7.2938000000e-06     1     2    10    13
-1.0151890000e-04     1     2    11     1
-2.4463800000e-05     1     2    11     3
 2.3925000000e-05     1     2    11     4
-2.5001000000e-06     1     2    11     5
-1.2840000000e-06     1     2    11     6
-5.6182100000e-05     1     2    11     7
-1.0974800000e-05     1     2    11     8
-9.1852000000e-06     1     2    11     9
 3.7630000000e-07     1     2    11    10
 8.8704263400e-02     1     2    11    11
 4.2180900000e-05     1     2    11    12
-2.0351400000e-05     1     2    11    13
 7.6673600000e-05     1     2    12     1
-3.8754743000e-03     1     2    12     3
 1.1661360000e-03     1     2    12     4
 5.6808000000e-06     1     2    12     5
 8.6249000000e-06     1     2    12     6
-5.2782718000e-03     1     2    12     7
-4.2543887000e-03     1     2    12     8
 1.3978100000e-05     1     2    12     9
 7.5943000000e-06     1     2    12    10
 4.2482200000e-05     1     2    12    11
 9.7459021000e-02     1     2    12    12
 6.9937000000e-06     1     2    12    13
 9.4376480000e-04     1     2    13     1
-1.1698476000e-03     1     2    13     3
-3.8604790000e-03     1     2    13     4
 4.8203200000e-05     1     2    13     5
 3.5925500000e-05     1     2    13     6
 4.2257789000e-03     1     2    13     7
-5.2697634000e-03     1     2    13     8
 2.0359100000e-05     1     2    13     9
-8.3496000000e-06     1     2    13    10
-2.1190500000e-05     1     2    13    11
 5.5982000000e-06     1     2    13    12
 9.7447675500e-02     1     2    13    13
-2.3733000000e-06     1     3     2     1
-8.7273000000e-06     1     3     2     2
 1.8300000000e-08     1     3     2     4
 6.0500000000e-07     1     3     2     5
 7.5250000000e-06     1     3     2     6
 2.2130746700e-02     1     3     2     7
 3.2323806800e-02     1     3     2     8
-5.5921000000e-05     1     3     2     9
-1.3030700000e-05     1     3     2    10
-7.6488400000e-05     1     3     2    11
-1.2064343300e-02     1     3     2    12
-3.6428900000e-03     1     3     2    13
-1.5141214670e-01     1     3     3     1
-9.2566256900e-02     1     3     3     2
-5.5149000000e-05     1     3     3     4
 2.7170710600e-02     1     3     3     5
 1.6015001300e-02     1     3     3     6
 3.3573600000e-05     1     3     3     7
-2.0466900000e-05     1     3     3     8
 3.3989040000e-04     1     3     3     9
 3.8516247800e-02     1     3     3    10
 4.5086270000e-04     1     3     3    11
 6.2684600000e-05     1     3     3    12
 1.1744742000e-03     1     3     3    13
 4.5800000000e-08     1     3     4     1
 2.8000000000e-08     1     3     4     2
-9.2030000000e-06     1     3     4     4
 1.1000000000e-08     1     3     4     5
-7.6000000000e-09     1     3     4     6
-1.8017700000e-05     1     3     4     7
-1.4977600000e-05     1     3     4     8
-1.0485200000e-05     1     3     4     9
 5.7885790000e-04     1     3     4    10
-3.9241531100e-02     1     3     4    11
 2.1337380000e-04     1     3     4    12
-1.6563950000e-04     1     3     4    13
-5.4390000000e-06     1     3     5     1
-1.1817000000e-06     1     3     5     2
 8.8000000000e-09     1     3     5     4
-9.7462000000e-06     1     3     5     5
 6.5254000000e-06     1     3     5     6
 6.1427231000e-03     1     3     5     7
 8.9687733000e-03     1     3     5     8
-2.0806500000e-05     1     3     5     9
 1.0614100000e-05     1     3     5    10
 1.5948330000e-04     1     3     5    11
 3.7964956200e-02     1     3     5    12
 1.1431204700e-02     1     3     5    13
-8.8440000000e-06     1     3     6     1
-2.0139000000e-06     1     3     6     2
 1.4900000000e-08     1     3     6     4
 3.1260000000e-07     1     3     6     5
-6.8823000000e-06     1     3     6     6
-3.0750009000e-03     1     3     6     7
-4.4917117000e-03     1     3     6     8
 2.2834200000e-05     1     3     6     9
 4.2086000000e-06     1     3     6    10
 5.5939000000e-06     1     3     6    11
 3.5441352000e-03     1     3     6    12
 1.0694859000e-03     1     3     6    13
-3.9945409100e-02     1     3     7     1
-8.4363558000e-03     1     3     7     2
 1.3210000000e-07     1     3     7     4
-2.6401340000e-04     1     3     7     5
 1.0273426900e-02     1     3     7     6
 3.8576000000e-06     1     3     7     7
-1.6022100000e-05     1     3     7     8
 4.4150727000e-03     1     3     7     9
 3.7159705000e-03     1     3     7    10
 5.0769488000e-03     1     3     7    11
-1.9155300000e-05     1     3     7    12
 3.2323070000e-04     1     3     7    13
-5.8348384800e-02     1     3     8     1
-1.2325240400e-02     1     3     8     2
 2.5710000000e-07     1     3     8     4
-3.8642970000e-04     1     3     8     5
 1.5005373000e-02     1     3     8     6
 3.4487900000e-05     1     3     8     7
-1.6085200000e-05     1     3     8     8
 6.4441573000e-03     1     3     8     9
 5.5272158000e-03     1     3     8    10
-3.3784005000e-03     1     3     8    11
 4.8790300000e-05     1     3     8    12
 4.1459910000e-04     1     3     8    13
 9.3093500000e-05     1     3     9     1
 2.0424800000e-05     1     3     9     2
 8.7000000000e-09     1     3     9     4
-1.5200000000e-08     1     3     9     5
-1.4389300000e-05     1     3     9     6
 3.1452649000e-03     1     3     9     7
 4.5974882000e-03     1     3     9     8
-2.2118000000e-05     1     3     9     9
-6.7828000000e-06     1     3     9    10
-9.5492000000e-06     1     3     9    11
-2.8083281000e-03     1     3     9    12
-8.4807260000e-04     1     3     9    13
 3.5588500000e-05     1     3    10     1
 4.5014000000e-06     1     3    10     2
-9.0000000009e-10     1     3    10     4
 1.2690000000e-07     1     3    10     5
-4.9516000000e-06     1     3    10     6
-3.2374533000e-03     1     3    10     7
-4.9920587000e-03     1     3    10     8
 1.4118200000e-05     1     3    10     9
-9.7509000000e-06     1     3    10    10
 1.2139500000e-05     1     3    10    11
 3.0944031000e-03     1     3    10    12
 9.8213420000e-04     1     3    10    13
 2.6532770000e-04     1     3    11     1
 2.4463800000e-05     1     3    11     2
 2.2020000000e-07     1     3    11     4
-3.5950000000e-07     1     3    11     5
-6.5843000000e-06     1     3    11     6
-5.8839135000e-03     1     3    11     7
 3.9688488000e-03     1     3    11     8
 6.5344500000e-05     1     3    11     9
-1.2502800000e-05     1     3    11    10
-4.2643000000e-06     1     3    11    11
 1.1880365000e-03     1     3    11    12
-3.8313173000e-03     1     3    11    13
 4.1308939400e-02     1     3    12     1
 3.8754743000e-03     1     3    12     2
-3.4730000000e-07     1     3    12     4
 9.3900000001e-07     1     3    12     5
-2.8562332000e-03     1     3    12     6
 4.0074200000e-05     1     3    12     7
-1.3391000000e-06     1     3    12     8
 9.9501275000e-03     1     3    12     9
-3.0180237000e-03     1     3    12    10
-8.2193650000e-04     1     3    12    11
-2.4790000000e-07     1     3    12    12
-1.3498680000e-04     1     3    12    13
 1.2456293100e-02     1     3    13     1
 1.1698476000e-03     1     3    13     2
-2.3420000000e-07     1     3    13     4
 2.8464000000e-06     1     3    13     5
-8.6345740000e-04     1     3    13     6
 1.4720100000e-05     1     3    13     7
 6.2311300000e-05     1     3    13     8
 2.9962200000e-03     1     3    13     9
-9.6132280000e-04     1     3    13    10
 2.6327437000e-03     1     3    13    11
 2.4770390000e-04     1     3    13    12
 1.5304600000e-05     1     3    13    13
 2.2331700000e-05     1     4     2     1
 5.7656100000e-05     1     4     2     2
-1.8300000000e-08     1     4     2     3
 9.1880000000e-07     1     4     2     5
 7.0826800000e-05     1     4     2     6
-3.2330799400e-02     1     4     2     7
 2.2133539200e-02     1     4     2     8
 6.4721800000e-05     1     4     2     9
 2.6681700000e-05     1     4     2    10
 7.4343400000e-05     1     4     2    11
 3.6310304000e-03     1     4     2    12
-1.2014600900e-02     1     4     2    13
 4.5800000000e-08     1     4     3     1
 9.7000000000e-09     1     4     3     2
 5.5149000000e-05     1     4     3     3
 2.2000000000e-09     1     4     3     5
-2.2500000000e-08     1     4     3     6
-1.8149800000e-05     1     4     3     7
-1.5234700000e-05     1     4     3     8
-1.0493900000e-05     1     4     3     9
 5.7885880000e-04     1     4     3    10
-3.9241751300e-02     1     4     3    11
 2.1372110000e-04     1     4     3    12
-1.6540530000e-04     1     4     3    13
-1.5136726820e-01     1     4     4     1
-9.2548571500e-02     1     4     4     2
 9.2030000000e-06     1     4     4     3
 2.7171488600e-02     1     4     4     5
 1.6001038100e-02     1     4     4     6
 5.8043200000e-05     1     4     4     7
-5.7796300000e-05     1     4     4     8
 3.7641980000e-04     1     4     4     9
-3.8767177300e-02     1     4     4    10
-6.8478780000e-04     1     4     4    11
 1.8077580000e-04     1     4     4    12
 8.5126960000e-04     1     4     4    13
 2.5483100000e-05     1     4     5     1
 5.6424000000e-06     1     4     5     2
-8.8000000000e-09     1     4     5     3
 5.7999100000e-05     1     4     5     5
-1.0559500000e-05     1     4     5     6
-8.9330493000e-03     1     4     5     7
 6.1267507000e-03     1     4     5     8
-9.6971000000e-06     1     4     5     9
-1.6077730000e-04     1     4     5    10
-2.1268040000e-04     1     4     5    11
-1.1455506500e-02     1     4     5    12
 3.7935687400e-02     1     4     5    13
-1.6022170000e-04     1     4     6     1
-2.9372500000e-05     1     4     6     2
-1.4900000000e-08     1     4     6     3
-3.5010000000e-07     1     4     6     5
 8.8045700000e-05     1     4     6     6
 4.4868895000e-03     1     4     6     7
-3.0740010000e-03     1     4     6     8
-2.1868500000e-05     1     4     6     9
-2.2338800000e-05     1     4     6    10
-1.9971400000e-05     1     4     6    11
-1.0631268000e-03     1     4     6    12
 3.5237627000e-03     1     4     6    13
 5.8390342200e-02     1     4     7     1
 1.2335468000e-02     1     4     7     2
-1.3210000000e-07     1     4     7     3
 3.8672090000e-04     1     4     7     5
-1.5016117000e-02     1     4     7     6
 3.8799000000e-05     1     4     7     7
 1.4895000000e-05     1     4     7     8
-6.4418264000e-03     1     4     7     9
 5.6251413000e-03     1     4     7    10
-3.2836890000e-03     1     4     7    11
-3.0902000000e-05     1     4     7    12
-3.9574810000e-04     1     4     7    13
-3.9964473400e-02     1     4     8     1
-8.4424855000e-03     1     4     8     2
-2.5710000000e-07     1     4     8     3
-2.6420200000e-04     1     4     8     5
 1.0278085500e-02     1     4     8     6
 8.7050000000e-06     1     4     8     7
 5.8052600000e-05     1     4     8     8
 4.4108101000e-03     1     4     8     9
-3.7819907000e-03     1     4     8    10
-5.1232116000e-03     1     4     8    11
 6.6213400000e-05     1     4     8    12
 2.1453950000e-04     1     4     8    13
-1.2881930000e-04     1     4     9     1
-2.5056800000e-05     1     4     9     2
-8.7000000000e-09     1     4     9     3
 9.3670000000e-07     1     4     9     5
 2.1203100000e-05     1     4     9     6
-4.5926553000e-03     1     4     9     7
 3.1455654000e-03     1     4     9     8
 5.2695800000e-05     1     4     9     9
 3.0292000000e-06     1     4     9    10
 1.4636800000e-05     1     4     9    11
 8.4659660000e-04     1     4     9    12
-2.7986152000e-03     1     4     9    13
-9.0783300000e-05     1     4    10     1
-7.9221000000e-06     1     4    10     2
 9.0000000009e-10     1     4    10     3
 6.4400000000e-07     1     4    10     5
 1.8011000000e-05     1     4    10     6
-4.9897840000e-03     1     4    10     7
 3.2360265000e-03     1     4    10     8
-2.8506700000e-05     1     4    10     9
 6.0590200000e-05     1     4    10    10
 2.0481500000e-05     1     4    10    11
 1.0014144000e-03     1     4    10    12
-3.1522319000e-03     1     4    10    13
-2.5279370000e-04     1     4    11     1
-2.3925000000e-05     1     4    11     2
-2.2020000000e-07     1     4    11     3
 4.8070000000e-07     1     4    11     5
 2.0977100000e-05     1     4    11     6
 3.9763713000e-03     1     4    11     7
 5.8766297000e-03     1     4    11     8
-7.3451000000e-05     1     4    11     9
-2.3317800000e-05     1     4    11    10
 5.4434100000e-05     1     4    11    11
-3.8257280000e-03     1     4    11    12
-1.2490422000e-03     1     4    11    13
-1.2448084400e-02     1     4    12     1
-1.1661360000e-03     1     4    12     2
 3.4730000000e-07     1     4    12     3
-2.9958000000e-06     1     4    12     5
 8.6110810000e-04     1     4    12     6
-1.7148300000e-05     1     4    12     7
-3.5141300000e-05     1     4    12     8
-2.9996927000e-03     1     4    12     9
-9.7403830000e-04     1     4    12    10
 2.6279100000e-03     1     4    12    11
 5.9495000000e-05     1     4    12    12
 8.6280400000e-05     1     4    12    13
 4.1208061400e-02     1     4    13     1
 3.8604790000e-03     1     4    13     2
 2.3420000000e-07     1     4    13     3
 1.3065000000e-06     1     4    13     5
-2.8460115000e-03     1     4    13     6
-5.1134200000e-05     1     4    13     7
 7.8830100000e-05     1     4    13     8
 9.9432563000e-03     1     4    13     9
 3.0530302000e-03     1     4    13    10
 8.4361720000e-04     1     4    13    11
-1.1521370000e-04     1     4    13    12
 1.5238590000e-04     1     4    13    13
-1.1225531100e-02     1     5     2     1
-2.8266821400e-02     1     5     2     2
-6.0500000000e-07     1     5     2     3
-9.1880000000e-07     1     5     2     4
 5.0367840000e-03     1     5     2     6
-7.5989800000e-05     1     5     2     7
-1.8889300000e-05     1     5     2     8
-4.0289599900e-02     1     5     2     9
-3.4442300000e-05     1     5     2    10
-3.4278000000e-06     1     5     2    11
 1.4657800000e-05     1     5     2    12
 1.0171970000e-04     1     5     2    13
-5.4390000000e-06     1     5     3     1
-1.7867000000e-06     1     5     3     2
-2.7170710600e-02     1     5     3     3
-2.2000000000e-09     1     5     3     4
 6.2128000000e-06     1     5     3     6
 6.4067365000e-03     1     5     3     7
 9.3552030000e-03     1     5     3     8
-2.0791300000e-05     1     5     3     9
 1.0487200000e-05     1     5     3    10
 1.5984280000e-04     1     5     3    11
 3.7964017200e-02     1     5     3    12
 1.1428358300e-02     1     5     3    13
 2.5483100000e-05     1     5     4     1
 4.7236000000e-06     1     5     4     2
-1.1000000000e-08     1     5     4     3
-2.7171488600e-02     1     5     4     4
-1.0209400000e-05     1     5     4     6
-9.3197702000e-03     1     5     4     7
 6.3909527000e-03     1     5     4     8
-1.0633800000e-05     1     5     4     9
-1.6142130000e-04     1     5     4    10
-2.1316110000e-04     1     5     4    11
-1.1452510700e-02     1     5     4    12
 3.7934380900e-02     1     5     4    13
-1.6745735190e-01     1     5     5     1
-9.6503851200e-02     1     5     5     2
 9.7462000000e-06     1     5     5     3
-5.7999100000e-05     1     5     5     4
 3.4279162600e-02     1     5     5     6
 2.4020400000e-05     1     5     5     7
-8.5011000000e-06     1     5     5     8
 1.3296267000e-03     1     5     5     9
 2.7389530000e-04     1     5     5    10
 2.4773630000e-04     1     5     5    11
-2.4867870000e-04     1     5     5    12
-2.1452065000e-03     1     5     5    13
 5.9972309000e-03     1     5     6     1
-1.2023020000e-03     1     5     6     2
-3.1260000000e-07     1     5     6     3
 3.5010000000e-07     1     5     6     4
-2.6413887400e-02     1     5     6     6
 1.9695800000e-05     1     5     6     7
 8.5127000000e-06     1     5     6     8
 2.1708856900e-02     1     5     6     9
 1.0495700000e-05     1     5     6    10
-3.5435000000e-06     1     5     6    11
-7.7138000000e-06     1     5     6    12
 1.1506900000e-05     1     5     6    13
 1.6924760000e-04     1     5     7     1
 3.0103500000e-05     1     5     7     2
 2.6401340000e-04     1     5     7     3
-3.8672090000e-04     1     5     7     4
-3.1374900000e-05     1     5     7     6
-3.0352919600e-02     1     5     7     7
-3.3700000000e-06     1     5     7     8
 2.2584600000e-05     1     5     7     9
 2.7647500000e-05     1     5     7    10
 6.6064800000e-05     1     5     7    11
 8.1177401000e-03     1     5     7    12
-6.5261769000e-03     1     5     7    13
 3.1910700000e-05     1     5     8     1
 7.5693000000e-06     1     5     8     2
 3.8642970000e-04     1     5     8     3
 2.6420200000e-04     1     5     8     4
-4.6181000000e-06     1     5     8     6
 6.0280000000e-07     1     5     8     7
-3.0354538600e-02     1     5     8     8
-1.5906800000e-05     1     5     8     9
-1.4602500000e-05     1     5     8    10
 7.0212000000e-06     1     5     8    11
 6.5249235000e-03     1     5     8    12
 8.1086017000e-03     1     5     8    13
 7.7515419200e-02     1     5     9     1
 1.5552786100e-02     1     5     9     2
 1.5200000000e-08     1     5     9     3
-9.3670000000e-07     1     5     9     4
-7.0726549000e-03     1     5     9     6
-2.3193300000e-05     1     5     9     7
 2.1273300000e-05     1     5     9     8
-2.7490346600e-02     1     5     9     9
-3.1123200000e-05     1     5     9    10
-3.0921900000e-05     1     5     9    11
 2.0546200000e-05     1     5     9    12
 3.0853780000e-04     1     5     9    13
 2.0510900000e-04     1     5    10     1
 1.4539300000e-05     1     5    10     2
-1.2690000000e-07     1     5    10     3
-6.4400000000e-07     1     5    10     4
-2.4085900000e-05     1     5    10     6
-2.3513800000e-05     1     5    10     7
 1.3934300000e-05     1     5    10     8
 3.4284000000e-05     1     5    10     9
-2.9161595100e-02     1     5    10    10
 1.0060000000e-07     1     5    10    11
 2.0851000000e-06     1     5    10    12
-4.3892000000e-06     1     5    10    13
 1.3193420000e-04     1     5    11     1
 2.5001000000e-06     1     5    11     2
 3.5950000000e-07     1     5    11     3
-4.8070000000e-07     1     5    11     4
-1.5512400000e-05     1     5    11     6
-4.1178800000e-05     1     5    11     7
-6.6890000000e-07     1     5    11     8
 2.8742300000e-05     1     5    11     9
 6.9700000000e-08     1     5    11    10
-2.9161734400e-02     1     5    11    11
-1.3530000000e-07     1     5    11    12
-8.5040000000e-07     1     5    11    13
-1.3284100000e-04     1     5    12     1
-5.6808000000e-06     1     5    12     2
-9.3900000001e-07     1     5    12     3
 2.9958000000e-06     1     5    12     4
 1.5577600000e-05     1     5    12     6
-4.1925690000e-03     1     5    12     7
-3.3727911000e-03     1     5    12     8
-1.6308300000e-05     1     5    12     9
 2.0204000000e-06     1     5    12    10
 1.4727800000e-05     1     5    12    11
-2.8740982100e-02     1     5    12    12
 3.1136000000e-06     1     5    12    13
-1.3027566000e-03     1     5    13     1
-4.8203200000e-05     1     5    13     2
-2.8464000000e-06     1     5    13     3
-1.3065000000e-06     1     5    13     4