&FCI NORB= 13,NELEC=  2,MS2=0,
 ORBSYM=1,1,1,1,1,1,1,1,1,1,1,1,1
 ISYM=1,
&END
 1.0694138290e-01     1     1     2     2
-1.0774946900e-02     1     1     2     3
-1.1923610000e-04     1     1     2     4
-2.9896640000e-04     1     1     2     5
-8.7148861400e-02     1     1     2     6
-2.8702000000e-06     1     1     2     7
 1.1134000000e-05     1     1     2     8
-1.3423243800e-02     1     1     2     9
 2.6311800000e-05     1     1     2    10
-4.1324980000e-04     1     1     2    11
-8.9020940000e-04     1     1     2    12
-1.3645777000e-03     1     1     2    13
-1.0774946900e-02     1     1     3     2
 1.4067343400e-01     1     1     3     3
 5.1419600000e-05     1     1     3     4
 1.2787140000e-04     1     1     3     5
-6.6874700000e-04     1     1     3     6
 1.3175979000e-03     1     1     3     7
 1.4769841000e-03     1     1     3     8
-6.2621440400e-02     1     1     3     9
 9.1850500000e-05     1     1     3    10
-1.5875261000e-03     1     1     3    11
-4.7900559000e-03     1     1     3    12
-5.1543443000e-03     1     1     3    13
-1.1923610000e-04     1     1     4     2
 5.1419600000e-05     1     1     4     3
 1.3546532460e-01     1     1     4     4
 1.1930000000e-06     1     1     4     5
 1.1641000000e-06     1     1     4     6
 2.6194826700e-02     1     1     4     7
-5.8776115700e-02     1     1     4     8
-8.1662970000e-04     1     1     4     9
-3.5534970000e-04     1     1     4    10
 1.5265140000e-04     1     1     4    11
 1.3390964800e-02     1     1     4    12
-4.4404782900e-02     1     1     4    13
-2.9896640000e-04     1     1     5     2
 1.2787140000e-04     1     1     5     3
 1.1930000000e-06     1     1     5     4
 1.3545708180e-01     1     1     5     5
-1.4300500000e-05     1     1     5     6
-5.8770927300e-02     1     1     5     7
-2.6171520600e-02     1     1     5     8
-1.7643319000e-03     1     1     5     9
 4.5629660000e-04     1     1     5    10
 1.8161600000e-05     1     1     5    11
 4.4268353100e-02     1     1     5    12
 1.2951109200e-02     1     1     5    13
-8.7148861400e-02     1     1     6     2
-6.6874700000e-04     1     1     6     3
 1.1641000000e-06     1     1     6     4
-1.4300500000e-05     1     1     6     5
 1.8907925590e-01     1     1     6     6
-8.2380000000e-07     1     1     6     7
 8.5104000000e-06     1     1     6     8
-4.4353974000e-03     1     1     6     9
-2.8696000000e-06     1     1     6    10
 3.6429000000e-05     1     1     6    11
 1.5130430000e-04     1     1     6    12
 2.4139610000e-04     1     1     6    13
-2.8702000000e-06     1     1     7     2
 1.3175979000e-03     1     1     7     3
 2.6194826700e-02     1     1     7     4
-5.8770927300e-02     1     1     7     5
-8.2380000000e-07     1     1     7     6
 1.8959652700e-01     1     1     7     7
 4.1849000000e-06     1     1     7     8
 2.3448400000e-05     1     1     7     9
-1.2436580000e-04     1     1     7    10
-1.2008900000e-05     1     1     7    11
-8.2430011000e-03     1     1     7    12
-7.0552968000e-03     1     1     7    13
 1.1134000000e-05     1     1     8     2
 1.4769841000e-03     1     1     8     3
-5.8776115700e-02     1     1     8     4
-2.6171520600e-02     1     1     8     5
 8.5104000000e-06     1     1     8     6
 4.1849000000e-06     1     1     8     7
 1.8957961590e-01     1     1     8     8
 1.0518800000e-05     1     1     8     9
 3.2983400000e-05     1     1     8    10
-3.8420300000e-05     1     1     8    11
-7.1284531000e-03     1     1     8    12
 8.2606956000e-03     1     1     8    13
-1.3423243800e-02     1     1     9     2
-6.2621440400e-02     1     1     9     3
-8.1662970000e-04     1     1     9     4
-1.7643319000e-03     1     1     9     5
-4.4353974000e-03     1     1     9     6
 2.3448400000e-05     1     1     9     7
 1.0518800000e-05     1     1     9     8
 2.1561881310e-01     1     1     9     9
-1.1628000000e-05     1     1     9    10
 1.8542700000e-04     1     1     9    11
 4.6008900000e-04     1     1     9    12
 7.1905790000e-04     1     1     9    13
 2.6311800000e-05     1     1    10     2
 9.1850500000e-05     1     1    10     3
-3.5534970000e-04     1     1    10     4
 4.5629660000e-04     1     1    10     5
-2.8696000000e-06     1     1    10     6
-1.2436580000e-04     1     1    10     7
 3.2983400000e-05     1     1    10     8
-1.1628000000e-05     1     1    10     9
 1.7883284910e-01     1     1    10    10
-1.5110000000e-07     1     1    10    11
 5.4439800000e-05     1     1    10    12
 7.2292600000e-05     1     1    10    13
-4.1324980000e-04     1     1    11     2
-1.5875261000e-03     1     1    11     3
 1.5265140000e-04     1     1    11     4
 1.8161600000e-05     1     1    11     5
 3.6429000000e-05     1     1    11     6
-1.2008900000e-05     1     1    11     7
-3.8420300000e-05     1     1    11     8
 1.8542700000e-04     1     1    11     9
-1.5110000000e-07     1     1    11    10
 1.7884621260e-01     1     1    11    11
 4.0883000000e-05     1     1    11    12
 1.8059800000e-05     1     1    11    13
-8.9020940000e-04     1     1    12     2
-4.7900559000e-03     1     1    12     3
 1.3390964800e-02     1     1    12     4
 4.4268353100e-02     1     1    12     5
 1.5130430000e-04     1     1    12     6
-8.2430011000e-03     1     1    12     7
-7.1284531000e-03     1     1    12     8
 4.6008900000e-04     1     1    12     9
 5.4439800000e-05     1     1    12    10
 4.0883000000e-05     1     1    12    11
 1.9248757260e-01     1     1    12    12
 1.5219500000e-05     1     1    12    13
-1.3645777000e-03     1     1    13     2
-5.1543443000e-03     1     1    13     3
-4.4404782900e-02     1     1    13     4
 1.2951109200e-02     1     1    13     5
 2.4139610000e-04     1     1    13     6
-7.0552968000e-03     1     1    13     7
 8.2606956000e-03     1     1    13     8
 7.1905790000e-04     1     1    13     9
 7.2292600000e-05     1     1    13    10
 1.8059800000e-05     1     1    13    11
 1.5219500000e-05     1     1    13    12
 1.9250487960e-01     1     1    13    13
-1.0694138290e-01     1     2     2     1
 3.9546073500e-02     1     2     2     3
 4.4391140000e-04     1     2     2     4
 1.1016349000e-03     1     2     2     5
 5.6309912400e-02     1     2     2     6
-8.5985000000e-06     1     2     2     7
 2.1233200000e-05     1     2     2     8
-1.1720163900e-02     1     2     2     9
-1.0106100000e-05     1     2     2    10
 1.5919360000e-04     1     2     2    11
 3.4804430000e-04     1     2     2    12
 5.3998120000e-04     1     2     2    13
 1.0774946900e-02     1     2     3     1
-8.5415089600e-02     1     2     3     3
-3.0321400000e-05     1     2     3     4
-7.4853800000e-05     1     2     3     5
 1.3692364300e-02     1     2     3     6
-1.1019663000e-03     1     2     3     7
-1.2369656000e-03     1     2     3     8
 5.2014548700e-02     1     2     3     9
-2.4780900000e-05     1     2     3    10
 4.2793560000e-04     1     2     3    11
 1.3584285000e-03     1     2     3    12
 1.3950295000e-03     1     2     3    13
 1.1923610000e-04     1     2     4     1
-2.8775200000e-05     1     2     4     3
-8.2675873400e-02     1     2     4     4
-6.7780000000e-07     1     2     4     5
 1.4995070000e-04     1     2     4     6
-2.1921042000e-02     1     2     4     7
 4.9177541600e-02     1     2     4     8
 6.7630690000e-04     1     2     4     9
 1.0340940000e-04     1     2     4    10
-4.0129600000e-05     1     2     4    11
-3.8644902000e-03     1     2     4    12
 1.2795986100e-02     1     2     4    13
 2.9896640000e-04     1     2     5     1
-7.1190800000e-05     1     2     5     3
-7.6530000000e-07     1     2     5     4
-8.2672547700e-02     1     2     5     5
 3.8458310000e-04     1     2     5     6
 4.9171994500e-02     1     2     5     7
 2.1898172200e-02     1     2     5     8
 1.4704707000e-03     1     2     5     9
-1.3069460000e-04     1     2     5    10
-1.4013700000e-05     1     2     5    11
-1.2757990700e-02     1     2     5    12
-3.7433001000e-03     1     2     5    13
 8.7148861400e-02     1     2     6     1
 3.1326874000e-03     1     2     6     3
 3.4091400000e-05     1     2     6     4
 9.0114200000e-05     1     2     6     5
-9.2602232200e-02     1     2     6     6
 4.9295000000e-06     1     2     6     7
-1.1681000000e-05     1     2     6     8
 1.0316896500e-02     1     2     6     9
 1.2657000000e-06     1     2     6    10
-1.5445400000e-05     1     2     6    11
-6.2668500000e-05     1     2     6    12
-1.0036710000e-04     1     2     6    13
 2.8702000000e-06     1     2     7     1
-3.7158830000e-04     1     2     7     3
-7.4389974000e-03     1     2     7     4
 1.6692230100e-02     1     2     7     5
 1.3900000000e-07     1     2     7     6
-9.0492026500e-02     1     2     7     7
-4.5146000000e-06     1     2     7     8
-8.6347000000e-06     1     2     7     9
 6.2540000000e-05     1     2     7    10
-4.0603000000e-06     1     2     7    11
 3.9728518000e-03     1     2     7    12
 3.4027212000e-03     1     2     7    13
-1.1134000000e-05     1     2     8     1
-4.1603250000e-04     1     2     8     3
 1.6693959800e-02     1     2     8     4
 7.4316166000e-03     1     2     8     5
 1.4880000000e-07     1     2     8     6
-1.8748000000e-06     1     2     8     7
-9.0482037700e-02     1     2     8     8
-2.1280000000e-06     1     2     8     9
-1.8275300000e-05     1     2     8    10
 1.9671400000e-05     1     2     8    11
 3.4370334000e-03     1     2     8    12
-3.9807986000e-03     1     2     8    13
 1.3423243800e-02     1     2     9     1
 1.6825554800e-02     1     2     9     3
 2.1875570000e-04     1     2     9     4
 4.7380940000e-04     1     2     9     5
 7.2646980000e-04     1     2     9     6
-3.9476000000e-06     1     2     9     7
 2.1503000000e-06     1     2     9     8
-1.0644476520e-01     1     2     9     9
 1.1771100000e-05     1     2     9    10
-1.8275270000e-04     1     2     9    11
-3.9747850000e-04     1     2     9    12
-6.3931260000e-04     1     2     9    13
-2.6311800000e-05     1     2    10     1
-8.2787000000e-06     1     2    10     3
 3.2830900000e-05     1     2    10     4
-4.2129800000e-05     1     2    10     5
 6.4449000000e-06     1     2    10     6
 1.1839850000e-04     1     2    10     7
-3.1771900000e-05     1     2    10     8
 1.9621600000e-05     1     2    10     9
-8.0386715800e-02     1     2    10    10
 6.3000000000e-07     1     2    10    11
-4.7982500000e-05     1     2    10    12
-6.7580700000e-05     1     2    10    13
 4.1324980000e-04     1     2    11     1
 1.4417670000e-04     1     2    11     3
-1.0434900000e-05     1     2    11     4
-9.0577000000e-06     1     2    11     5
-9.7423000000e-05     1     2    11     6
-1.4864000000e-06     1     2    11     7
 3.7531700000e-05     1     2    11     8
-3.0858330000e-04     1     2    11     9
 6.3050000000e-07     1     2    11    10
-8.0402030500e-02     1     2    11    11
-2.9980500000e-05     1     2    11    12
-3.7654000000e-06     1     2    11    13
 8.9020940000e-04     1     2    12     1
 4.5162320000e-04     1     2    12     3
-1.2023698000e-03     1     2    12     4
-3.9704839000e-03     1     2    12     5
-2.3669650000e-04     1     2    12     6
 7.4352914000e-03     1     2    12     7
 6.4321240000e-03     1     2    12     8
-6.6256140000e-04     1     2    12     9
-4.7911000000e-05     1     2    12    10
-3.0092700000e-05     1     2    12    11
-9.0660135400e-02     1     2    12    12
-9.6837000000e-06     1     2    12    13
 1.3645777000e-03     1     2    13     1
 4.6702580000e-04     1     2    13     3
 3.9829582000e-03     1     2    13     4
-1.1641969000e-03     1     2    13     5
-3.6509800000e-04     1     2    13     6
 6.3642172000e-03     1     2    13     7
-7.4535353000e-03     1     2    13     8
-1.0709536000e-03     1     2    13     9
-6.7919700000e-05     1     2    13    10
-3.9174000000e-06     1     2    13    11
-7.6916000000e-06     1     2    13    12
-9.0678647100e-02     1     2    13    13
 1.0774946900e-02     1     3     2     1
-3.9546073500e-02     1     3     2     2
-1.5462000000e-06     1     3     2     4
-3.6630000000e-06     1     3     2     5
 1.0559676900e-02     1     3     2     6
-7.3037800000e-04     1     3     2     7
-8.2093310000e-04     1     3     2     8
 3.5188993900e-02     1     3     2     9
-1.6502200000e-05     1     3     2    10
 2.8375890000e-04     1     3     2    11
 9.0680530000e-04     1     3     2    12
 9.2800370000e-04     1     3     2    13
-1.4067343400e-01     1     3     3     1
 8.5415089600e-02     1     3     3     2
 4.5465140000e-04     1     3     3     4
 1.1253272000e-03     1     3     3     5
-2.7454229800e-02     1     3     3     6
 2.5871160000e-04     1     3     3     7
 2.7713980000e-04     1     3     3     8
-1.6915787000e-03     1     3     3     9
-5.6351300000e-05     1     3     3    10
 1.3534465000e-03     1     3     3    11
 5.2828677000e-03     1     3     3    12
 4.4296586000e-03     1     3     3    13
-5.1419600000e-05     1     3     4     1
 2.8775200000e-05     1     3     4     2
-4.0253756700e-02     1     3     4     4
 8.9300000000e-08     1     3     4     5
-1.2572270000e-04     1     3     4     6
 2.3877290000e-03     1     3     4     7
-5.3375112000e-03     1     3     4     8
-1.0410640000e-04     1     3     4     9
-8.1375860000e-04     1     3     4    10
-2.3121500000e-04     1     3     4    11
-1.1232191800e-02     1     3     4    12
 3.7437342100e-02     1     3     4    13
-1.2787140000e-04     1     3     5     1
 7.1190800000e-05     1     3     5     2
-8.5300000000e-08     1     3     5     4
-4.0253210000e-02     1     3     5     5
-3.1088120000e-04     1     3     5     6
-5.3300457000e-03     1     3     5     7
-2.3734817000e-03     1     3     5     8
-2.6014840000e-04     1     3     5     9
-5.0744930000e-04     1     3     5    10
 1.0920984000e-03     1     3     5    11
-3.7221533700e-02     1     3     5    12
-1.0833626000e-02     1     3     5    13
 6.6874700000e-04     1     3     6     1
-3.1326874000e-03     1     3     6     2
-1.5055000000e-06     1     3     6     4
-3.3784000000e-06     1     3     6     5
-3.9350026600e-02     1     3     6     6
 8.2052300000e-05     1     3     6     7
 1.0791250000e-04     1     3     6     8
-1.5525821900e-02     1     3     6     9
 9.5471000000e-06     1     3     6    10
-1.5940660000e-04     1     3     6    11
-4.9655340000e-04     1     3     6    12
-5.7776920000e-04     1     3     6    13
-1.3175979000e-03     1     3     7     1
 3.7158830000e-04     1     3     7     2
-1.6308780000e-04     1     3     7     4
 3.6545290000e-04     1     3     7     5
-3.7744960000e-04     1     3     7     6
-4.4087473600e-02     1     3     7     7
 1.7556000000e-06     1     3     7     8
 1.0835600000e-04     1     3     7     9
 6.2454000000e-05     1     3     7    10
-1.6715330000e-04     1     3     7    11
 8.0778774000e-03     1     3     7    12
 6.9052307000e-03     1     3     7    13
-1.4769841000e-03     1     3     8     1
 4.1603250000e-04     1     3     8     2
 3.6511170000e-04     1     3     8     4
 1.6351780000e-04     1     3     8     5
-4.0960970000e-04     1     3     8     6
-7.5700000000e-07     1     3     8     7
-4.4087345500e-02     1     3     8     8
 1.0869650000e-04     1     3     8     9
 1.3768230000e-04     1     3     8    10
-2.0673900000e-05     1     3     8    11
 6.9842016000e-03     1     3     8    12
-8.1216818000e-03     1     3     8    13
 6.2621440400e-02     1     3     9     1
-1.6825554800e-02     1     3     9     2
 1.6544000000e-06     1     3     9     4
 1.4332000000e-06     1     3     9     5
 8.0608139000e-03     1     3     9     6
 5.4224500000e-05     1     3     9     7
 5.6903100000e-05     1     3     9     8
-4.5549939100e-02     1     3     9     9
 9.9988000000e-06     1     3     9    10
-1.7106260000e-04     1     3     9    11
-5.5188680000e-04     1     3     9    12
-6.7018500000e-04     1     3     9    13
-9.1850500000e-05     1     3    10     1
 8.2787000000e-06     1     3    10     2
 6.2726000000e-06     1     3    10     4
-1.0149000000e-05     1     3    10     5
-5.8671000000e-06     1     3    10     6
 4.3278000000e-06     1     3    10     7
-1.4527770000e-04     1     3    10     8
-1.0534700000e-05     1     3    10     9
-4.0757774800e-02     1     3    10    10
 1.4993000000e-06     1     3    10    11
 6.1161300000e-05     1     3    10    12
-1.2392800000e-04     1     3    10    13
 1.5875261000e-03     1     3    11     1
-1.4417670000e-04     1     3    11     2
-4.0107000000e-06     1     3    11     4
 4.4270000000e-07     1     3    11     5
 1.0152420000e-04     1     3    11     6
 1.5481690000e-04     1     3    11     7
 3.4933800000e-05     1     3    11     8
 1.7247420000e-04     1     3    11     9
-1.8299000000e-06     1     3    11    10
-4.0758962700e-02     1     3    11    11
-1.3761920000e-04     1     3    11    12
-5.1781000000e-05     1     3    11    13
 4.7900559000e-03     1     3    12     1
-4.5162320000e-04     1     3    12     2
-2.7612480000e-04     1     3    12     4
-9.2050520000e-04     1     3    12     5
 2.7263090000e-04     1     3    12     6
-2.2624902000e-03     1     3    12     7
-1.9542463000e-03     1     3    12     8
 4.4828830000e-04     1     3    12     9
-3.0094700000e-05     1     3    12    10
 8.8305600000e-05     1     3    12    11
-4.1400099000e-02     1     3    12    12
 1.3381800000e-05     1     3    12    13
 5.1543443000e-03     1     3    13     1
-4.6702580000e-04     1     3    13     2
 9.1944820000e-04     1     3    13     4
-2.6889880000e-04     1     3    13     5
 2.9289400000e-04     1     3    13     6
-1.9324577000e-03     1     3    13     7
 2.2729551000e-03     1     3    13     8
 5.0409570000e-04     1     3    13     9
 9.1022600000e-05     1     3    13    10
 3.5369800000e-05     1     3    13    11
-3.3207900000e-05     1     3    13    12
-4.1398645800e-02     1     3    13    13
 1.1923610000e-04     1     4     2     1
-4.4391140000e-04     1     4     2     2
 1.5462000000e-06     1     4     2     3
 8.7500000000e-08     1     4     2     5
 1.1585930000e-04     1     4     2     6
-1.4482044600e-02     1     4     2     7
 3.2483581800e-02     1     4     2     8
 4.5755120000e-04     1     4     2     9
 7.0578500000e-05     1     4     2    10
-2.9694700000e-05     1     4     2    11
-2.6621204000e-03     1     4     2    12
 8.8130279000e-03     1     4     2    13
-5.1419600000e-05     1     4     3     1
 3.0321400000e-05     1     4     3     2
-4.5465140000e-04     1     4     3     3
 1.7460000000e-07     1     4     3     5
-1.2421720000e-04     1     4     3     6
 2.5508168000e-03     1     4     3     7
-5.7026229000e-03     1     4     3     8
-1.0576080000e-04     1     4     3     9
-8.2003120000e-04     1     4     3    10
-2.2720430000e-04     1     4     3    11
-1.0956067000e-02     1     4     3    12
 3.6517893900e-02     1     4     3    13
-1.3546532460e-01     1     4     4     1
 8.2675873400e-02     1     4     4     2
 4.0253756700e-02     1     4     4     3
 1.1152499000e-03     1     4     4     5
-1.6270628100e-02     1     4     4     6
 4.0433200000e-05     1     4     4     7
-1.5138650000e-04     1     4     4     8
 7.5769631000e-03     1     4     4     9
 9.9883632000e-03     1     4     4    10
 3.4452110000e-02     1     4     4    11
-1.8546097000e-03     1     4     4    12
-1.4234895000e-03     1     4     4    13
-1.1930000000e-06     1     4     5     1
 7.6530000000e-07     1     4     5     2
 8.5300000000e-08     1     4     5     3
-4.5039980000e-04     1     4     5     5
-3.2749000000e-06     1     4     5     6
 1.2091300000e-05     1     4     5     7
-1.9004460000e-04     1     4     5     8
-2.5303000000e-06     1     4     5     9
 3.5631402800e-02     1     4     5    10
-1.0109386100e-02     1     4     5    11
-9.3176670000e-04     1     4     5    12
 5.4088720000e-04     1     4     5    13
-1.1641000000e-06     1     4     6     1
-3.4091400000e-05     1     4     6     2
 1.5055000000e-06     1     4     6     3
 1.6400000000e-08     1     4     6     5
-4.4360590000e-04     1     4     6     6
 1.8206180000e-03     1     4     6     7
-4.0794506000e-03     1     4     6     8
-1.9183280000e-04     1     4     6     9
-2.6527600000e-05     1     4     6    10
 1.0945700000e-05     1     4     6    11
 1.1100333000e-03     1     4     6    12
-3.6903590000e-03     1     4     6    13
-2.6194826700e-02     1     4     7     1
 7.4389974000e-03     1     4     7     2
 1.6308780000e-04     1     4     7     3
 1.0931900000e-05     1     4     7     5
-7.4196996000e-03     1     4     7     6
-4.9061700000e-04     1     4     7     7
-1.1809700000e-05     1     4     7     8
 2.3879038000e-03     1     4     7     9
-4.3901986000e-03     1     4     7    10
 3.8586436000e-03     1     4     7    11
-5.2090300000e-05     1     4     7    12
-1.2342870000e-04     1     4     7    13
 5.8776115700e-02     1     4     8     1
-1.6693959800e-02     1     4     8     2
-3.6511170000e-04     1     4     8     3
-1.0376300000e-05     1     4     8     5
 1.6647395100e-02     1     4     8     6
-8.4283000000e-06     1     4     8     7
-4.7734900000e-04     1     4     8     8
-5.3536911000e-03     1     4     8     9
-3.7924344000e-03     1     4     8    10
-4.6928082000e-03     1     4     8    11
 4.9991520000e-04     1     4     8    12
 5.0644660000e-04     1     4     8    13
 8.1662970000e-04     1     4     9     1
-2.1875570000e-04     1     4     9     2
-1.6544000000e-06     1     4     9     3
 1.0430000000e-07     1     4     9     5
 1.1493540000e-04     1     4     9     6
 1.4128081000e-03     1     4     9     7
-3.1700126000e-03     1     4     9     8
-5.3246190000e-04     1     4     9     9
-2.4938600000e-05     1     4     9    10
-6.4865000000e-06     1     4     9    11
 1.0771443000e-03     1     4     9    12
-3.5735536000e-03     1     4     9    13
 3.5534970000e-04     1     4    10     1
-3.2830900000e-05     1     4    10     2
-6.2726000000e-06     1     4    10     3
-1.6620000000e-07     1     4    10     5
 2.0731200000e-05     1     4    10     6
 4.2848849000e-03     1     4    10     7
 3.3358599000e-03     1     4    10     8
 5.3474400000e-05     1     4    10     9
-4.6877030000e-04     1     4    10    10
-4.6155900000e-05     1     4    10    11
-4.5839547000e-03     1     4    10    12
-2.6177810000e-04     1     4    10    13
-1.5265140000e-04     1     4    11     1
 1.0434900000e-05     1     4    11     2
 4.0107000000e-06     1     4    11     3
-3.1760000000e-07     1     4    11     5
-7.8258000000e-06     1     4    11     6
-3.0956052000e-03     1     4    11     7
 3.4040873000e-03     1     4    11     8
-2.0856100000e-05     1     4    11     9
 4.6349400000e-05     1     4    11    10
-4.5914980000e-04     1     4    11    11
 2.1510350000e-04     1     4    11    12
 3.6995914000e-03     1     4    11    13
-1.3390964800e-02     1     4    12     1
 1.2023698000e-03     1     4    12     2
 2.7612480000e-04     1     4    12     3
-2.6993000000e-06     1     4    12     5
-6.7621040000e-04     1     4    12     6
-2.9165400000e-05     1     4    12     7
-7.9983400000e-05     1     4    12     8
-1.6386244000e-03     1     4    12     9
 3.0985372000e-03     1     4    12    10
 1.4008710000e-04     1     4    12    11
-4.9548590000e-04     1     4    12    12
-6.2276060000e-04     1     4    12    13
 4.4404782900e-02     1     4    13     1
-3.9829582000e-03     1     4    13     2
-9.1944820000e-04     1     4    13     3
-2.7271200000e-05     1     4    13     5
 2.2353616000e-03     1     4    13     6
-2.5297700000e-05     1     4    13     7
-6.8843700000e-05     1     4    13     8
 5.4380645000e-03     1     4    13     9
-1.1667170000e-04     1     4    13    10
-3.2889273000e-03     1     4    13    11
 6.9857100000e-04     1     4    13    12
-3.4819150000e-04     1     4    13    13
 2.9896640000e-04     1     5     2     1
-1.1016349000e-03     1     5     2     2
 3.6630000000e-06     1     5     2     3
-8.7500000000e-08     1     5     2     4
 2.9446890000e-04     1     5     2     6
 3.2479764400e-02     1     5     2     7
 1.4466555600e-02     1     5     2     8
 9.9666130000e-04     1     5     2     9
-8.8564800000e-05     1     5     2    10
-4.9560000000e-06     1     5     2    11
-8.7875068000e-03     1     5     2    12
-2.5791032000e-03     1     5     2    13
-1.2787140000e-04     1     5     3     1
 7.4853800000e-05     1     5     3     2
-1.1253272000e-03     1     5     3     3
-1.7460000000e-07     1     5     3     4
-3.0750280000e-04     1     5     3     6
-5.6954986000e-03     1     5     3     7
-2.5369995000e-03     1     5     3     8
-2.6158160000e-04     1     5     3     9
-4.9730030000e-04     1     5     3    10
 1.0916557000e-03     1     5     3    11
-3.6301028500e-02     1     5     3    12
-1.0564727200e-02     1     5     3    13
-1.1930000000e-06     1     5     4     1
 6.7780000000e-07     1     5     4     2
-8.9300000000e-08     1     5     4     3
-1.1152499000e-03     1     5     4     4
-3.2913000000e-06     1     5     4     6
 1.1594000000e-06     1     5     4     7
-1.7966830000e-04     1     5     4     8
-2.6346000000e-06     1     5     4     9
 3.5631569000e-02     1     5     4    10
-1.0109068500e-02     1     5     4    11
-9.2906740000e-04     1     5     4    12
 5.6815840000e-04     1     5     4    13
-1.3545708180e-01     1     5     5     1
 8.2672547700e-02     1     5     5     2
 4.0253210000e-02     1     5     5     3
 4.5039980000e-04     1     5     5     4
-1.6274609100e-02     1     5     5     6
-3.0272540000e-04     1     5     5     7
-1.6093030000e-04     1     5     5     8
 7.5709047000e-03     1     5     5     9
-9.9394674000e-03     1     5     5    10
-3.5678792100e-02     1     5     5    11
-3.1531389000e-03     1     5     5    12
-2.6168351000e-03     1     5     5    13
 1.4300500000e-05     1     5     6     1
-9.0114200000e-05     1     5     6     2
 3.3784000000e-06     1     5     6     3
-1.6400000000e-08     1     5     6     4
-1.0945391000e-03     1     5     6     6
-4.0809220000e-03     1     5     6     7
-1.8176989000e-03     1     5     6     8
-4.4208470000e-04     1     5     6     9
 3.4496100000e-05     1     5     6    10
 1.6319000000e-06     1     5     6    11
 3.6729379000e-03     1     5     6    12
 1.0723391000e-03     1     5     6    13
 5.8770927300e-02     1     5     7     1
-1.6692230100e-02     1     5     7     2
-3.6545290000e-04     1     5     7     3
-1.0931900000e-05     1     5     7     4
 1.6644554900e-02     1     5     7     6
-1.2114240000e-03     1     5     7     7
 1.9051300000e-05     1     5     7     8
-5.3509387000e-03     1     5     7     9
 3.7763468000e-03     1     5     7    10
 4.9817336000e-03     1     5     7    11
 5.3342220000e-04     1     5     7    12
 7.0480930000e-04     1     5     7    13
 2.6171520600e-02     1     5     8     1
-7.4316166000e-03     1     5     8     2
-1.6351780000e-04     1     5     8     3
 1.0376300000e-05     1     5     8     4
 7.4130170000e-03     1     5     8     6
 1.1872700000e-05     1     5     8     7
-1.2187759000e-03     1     5     8     8
-2.3841889000e-03     1     5     8     9
-4.3950206000e-03     1     5     8    10
 3.9894346000e-03     1     5     8    11
 3.7290080000e-04     1     5     8    12
 7.4279800000e-05     1     5     8    13
 1.7643319000e-03     1     5     9     1
-4.7380940000e-04     1     5     9     2
-1.4332000000e-06     1     5     9     3
-1.0430000000e-07     1     5     9     4
 2.2719330000e-04     1     5     9     6
-3.1684609000e-03     1     5     9     7
-1.4110143000e-03     1     5     9     8
-1.2939264000e-03     1     5     9     9
 2.2049400000e-05     1     5     9    10
 1.6700700000e-05     1     5     9    11
 3.5558429000e-03     1     5     9    12
 1.0359485000e-03     1     5     9    13
-4.5629660000e-04     1     5    10     1
 4.2129800000e-05     1     5    10     2
 1.0149000000e-05     1     5    10     3
 1.6620000000e-07     1     5    10     4
-2.6756700000e-05     1     5    10     6
-3.3332317000e-03     1     5    10     7
 4.2839502000e-03     1     5    10     8
-4.6813500000e-05     1     5    10     9
-1.1262067000e-03     1     5    10    10
-4.4034000000e-05     1     5    10    11
-3.2609110000e-04     1     5    10    12
 4.5609210000e-03     1     5    10    13
-1.8161600000e-05     1     5    11     1
 9.0577000000e-06     1     5    11     2
-4.4270000000e-07     1     5    11     3
 3.1760000000e-07     1     5    11     4
-3.1993000000e-06     1     5    11     6
-3.4602181000e-03     1     5    11     7
-3.1216550000e-03     1     5    11     8
 1.0289200000e-05     1     5    11     9
 3.3494000000e-05     1     5    11    10
-1.1338329000e-03     1     5    11    11
 4.0881672000e-03     1     5    11    12
-1.3129160000e-04     1     5    11    13
-4.4268353100e-02     1     5    12     1
 3.9704839000e-03     1     5    12     2
 9.2050520000e-04     1     5    12     3
 2.6993000000e-06     1     5    12     4
-2.2277031000e-03     1     5    12     6
-3.4609400000e-05     1     5    12     7
-6.3779500000e-05     1     5    12     8
-5.4250521000e-03     1     5    12     9
-6.6837300000e-05     1     5    12    10
-3.6700735000e-03     1     5    12    11
-1.2928318000e-03     1     5    12    12
-6.4166940000e-04     1     5    12    13
-1.2951109200e-02     1     5    13     1
 1.1641969000e-03     1     5    13     2
 2.6889880000e-04     1     5    13     3
 2.7271200000e-05     1     5    13     4