&FCI NORB= 13,NELEC=  2,MS2=0,
 ORBSYM=1,1,1,1,1,1,1,1,1,1,1,1,1
 ISYM=1,
&END
 1.0694225830e-01     1     1     2     2
-1.0771600900e-02     1     1     2     3
 1.7623550000e-04     1     1     2     4
 3.3604610000e-04     1     1     2     5
 8.7154334900e-02     1     1     2     6
-1.0440250000e-04     1     1     2     7
 5.2940000000e-05     1     1     2     8
-1.3395639000e-02     1     1     2     9
-2.3533860000e-04     1     1     2    10
-7.1274300000e-05     1     1     2    11
-1.5627567000e-03     1     1     2    12
 2.4978511000e-03     1     1     2    13
-1.0771600900e-02     1     1     3     2
 1.4067077470e-01     1     1     3     3
-7.5676900000e-05     1     1     3     4
-1.4443930000e-04     1     1     3     5
 6.9837270000e-04     1     1     3     6
-1.6477840000e-04     1     1     3     7
-2.2029862000e-03     1     1     3     8
-6.2668159600e-02     1     1     3     9
-9.0111770000e-04     1     1     3    10
-2.5088420000e-04     1     1     3    11
-5.8956344000e-03     1     1     3    12
 8.1201285000e-03     1     1     3    13
 1.7623550000e-04     1     1     4     2
-7.5676900000e-05     1     1     4     3
 1.3545374440e-01     1     1     4     4
 2.4374000000e-06     1     1     4     5
-6.4631500000e-05     1     1     4     6
-5.9035677800e-02     1     1     4     7
-2.5634399100e-02     1     1     4     8
 9.9299680000e-04     1     1     4     9
-1.4352220000e-04     1     1     4    10
-8.8144250000e-04     1     1     4    11
-3.7842864200e-02     1     1     4    12
-2.6936839100e-02     1     1     4    13
 3.3604610000e-04     1     1     5     2
-1.4443930000e-04     1     1     5     3
 2.4374000000e-06     1     1     5     4
 1.3546142670e-01     1     1     5     5
 3.7023000000e-05     1     1     5     6
 2.5640484400e-02     1     1     5     7
-5.8988442700e-02     1     1     5     8
 1.8953328000e-03     1     1     5     9
 1.2438790000e-04     1     1     5    10
 1.2084523000e-03     1     1     5    11
 2.6424428100e-02     1     1     5    12
-3.7245935800e-02     1     1     5    13
 8.7154334900e-02     1     1     6     2
 6.9837270000e-04     1     1     6     3
-6.4631500000e-05     1     1     6     4
 3.7023000000e-05     1     1     6     5
 1.8906985750e-01     1     1     6     6
-1.6785100000e-05     1     1     6     7
 3.0467000000e-06     1     1     6     8
 4.4426494000e-03     1     1     6     9
-2.1611700000e-05     1     1     6    10
-6.9463000000e-06     1     1     6    11
-2.4718420000e-04     1     1     6    12
 4.4079140000e-04     1     1     6    13
-1.0440250000e-04     1     1     7     2
-1.6477840000e-04     1     1     7     3
-5.9035677800e-02     1     1     7     4
 2.5640484400e-02     1     1     7     5
-1.6785100000e-05     1     1     7     6
 1.8959689500e-01     1     1     7     7
 3.4702000000e-06     1     1     7     8
-9.2083000000e-06     1     1     7     9
 3.2574000000e-05     1     1     7    10
 2.9068390000e-04     1     1     7    11
 1.0634551900e-02     1     1     7    12
 2.3056437000e-03     1     1     7    13
 5.2940000000e-05     1     1     8     2
-2.2029862000e-03     1     1     8     3
-2.5634399100e-02     1     1     8     4
-5.8988442700e-02     1     1     8     5
 3.0467000000e-06     1     1     8     6
 3.4702000000e-06     1     1     8     7
 1.8958301840e-01     1     1     8     8
-4.2721000000e-05     1     1     8     9
 9.9100000000e-08     1     1     8    10
-1.7053040000e-04     1     1     8    11
-2.0974457000e-03     1     1     8    12
 1.0487760700e-02     1     1     8    13
-1.3395639000e-02     1     1     9     2
-6.2668159600e-02     1     1     9     3
 9.9299680000e-04     1     1     9     4
 1.8953328000e-03     1     1     9     5
 4.4426494000e-03     1     1     9     6
-9.2083000000e-06     1     1     9     7
-4.2721000000e-05     1     1     9     8
 2.1567190690e-01     1     1     9     9
 1.0475520000e-04     1     1     9    10
 3.1505400000e-05     1     1     9    11
 8.1593360000e-04     1     1     9    12
-1.2817393000e-03     1     1     9    13
-2.3533860000e-04     1     1    10     2
-9.0111770000e-04     1     1    10     3
-1.4352220000e-04     1     1    10     4
 1.2438790000e-04     1     1    10     5
-2.1611700000e-05     1     1    10     6
 3.2574000000e-05     1     1    10     7
 9.9100000000e-08     1     1    10     8
 1.0475520000e-04     1     1    10     9
 1.7884072170e-01     1     1    10    10
 4.4762000000e-06     1     1    10    11
 4.3922200000e-05     1     1    10    12
-1.5043800000e-05     1     1    10    13
-7.1274300000e-05     1     1    11     2
-2.5088420000e-04     1     1    11     3
-8.8144250000e-04     1     1    11     4
 1.2084523000e-03     1     1    11     5
-6.9463000000e-06     1     1    11     6
 2.9068390000e-04     1     1    11     7
-1.7053040000e-04     1     1    11     8
 3.1505400000e-05     1     1    11     9
 4.4762000000e-06     1     1    11    10
 1.7885099810e-01     1     1    11    11
 2.3773370000e-04     1     1    11    12
-8.1620300000e-05     1     1    11    13
-1.5627567000e-03     1     1    12     2
-5.8956344000e-03     1     1    12     3
-3.7842864200e-02     1     1    12     4
 2.6424428100e-02     1     1    12     5
-2.4718420000e-04     1     1    12     6
 1.0634551900e-02     1     1    12     7
-2.0974457000e-03     1     1    12     8
 8.1593360000e-04     1     1    12     9
 4.3922200000e-05     1     1    12    10
 2.3773370000e-04     1     1    12    11
 1.9251145120e-01     1     1    12    12
-4.2020300000e-05     1     1    12    13
 2.4978511000e-03     1     1    13     2
 8.1201285000e-03     1     1    13     3
-2.6936839100e-02     1     1    13     4
-3.7245935800e-02     1     1    13     5
 4.4079140000e-04     1     1    13     6
 2.3056437000e-03     1     1    13     7
 1.0487760700e-02     1     1    13     8
-1.2817393000e-03     1     1    13     9
-1.5043800000e-05     1     1    13    10
-8.1620300000e-05     1     1    13    11
-4.2020300000e-05     1     1    13    12
 1.9259593800e-01     1     1    13    13
-1.0694225830e-01     1     2     2     1
-3.9542775900e-02     1     2     2     3
 6.5347720000e-04     1     2     2     4
 1.2475011000e-03     1     2     2     5
 5.6303538600e-02     1     2     2     6
-7.0731500000e-05     1     2     2     7
 3.3246000000e-06     1     2     2     8
 1.1745264300e-02     1     2     2     9
-9.1011800000e-05     1     2     2    10
-2.7601200000e-05     1     2     2    11
-6.1088620000e-04     1     2     2    12
 9.8097650000e-04     1     2     2    13
 1.0771600900e-02     1     2     3     1
 8.5411768200e-02     1     2     3     3
-4.4505200000e-05     1     2     3     4
-8.5009900000e-05     1     2     3     5
 1.3716395100e-02     1     2     3     6
-1.5152210000e-04     1     2     3     7
-1.8355527000e-03     1     2     3     8
-5.2017541400e-02     1     2     3     9
-2.4225460000e-04     1     2     3    10
-6.6620700000e-05     1     2     3    11
-1.5978878000e-03     1     2     3    12
 2.1626361000e-03     1     2     3    13
-1.7623550000e-04     1     2     4     1
-4.2299400000e-05     1     2     4     3
 8.2668312700e-02     1     2     4     4
 1.5168000000e-06     1     2     4     5
-2.7756430000e-04     1     2     4     6
-4.9388404700e-02     1     2     4     7
-2.1448492100e-02     1     2     4     8
 8.2803590000e-04     1     2     4     9
-3.8426600000e-05     1     2     4    10
-2.5550350000e-04     1     2     4    11
-1.0905803400e-02     1     2     4    12
-7.7439474000e-03     1     2     4    13
-3.3604610000e-04     1     2     5     1
-8.0765400000e-05     1     2     5     3
 1.3975000000e-06     1     2     5     4
 8.2672103800e-02     1     2     5     5
-3.9098940000e-04     1     2     5     6
 2.1461988600e-02     1     2     5     7
-4.9356740100e-02     1     2     5     8
 1.5805842000e-03     1     2     5     9
 3.0707300000e-05     1     2     5    10
 3.5161840000e-04     1     2     5    11
 7.6062614000e-03     1     2     5    12
-1.0730754600e-02     1     2     5    13
-8.7154334900e-02     1     2     6     1
 3.1388762000e-03     1     2     6     3
-6.9905400000e-05     1     2     6     4
-8.5681800000e-05     1     2     6     5
 9.2593855400e-02     1     2     6     6
-1.5358000000e-05     1     2     6     7
-9.3506000000e-06     1     2     6     8
 1.0329535300e-02     1     2     6     9
-9.4553000000e-06     1     2     6    10
-3.2266000000e-06     1     2     6    11
-9.6044100000e-05     1     2     6    12
 1.7544600000e-04     1     2     6    13
 1.0440250000e-04     1     2     7     1
-4.9304300000e-05     1     2     7     3
-1.6765751900e-02     1     2     7     4
 7.2832695000e-03     1     2     7     5
-1.3610100000e-05     1     2     7     6
 9.0489794100e-02     1     2     7     7
 4.9358000000e-06     1     2     7     8
-1.2365900000e-05     1     2     7     9
 2.2851800000e-05     1     2     7    10
 1.4525890000e-04     1     2     7    11
 5.1236836000e-03     1     2     7    12
 1.1052934000e-03     1     2     7    13
-5.2940000000e-05     1     2     8     1
-6.2022180000e-04     1     2     8     3
-7.2788893000e-03     1     2     8     4
-1.6754627100e-02     1     2     8     5
 6.1027000000e-06     1     2     8     6
 1.4754000000e-06     1     2     8     7
 9.0481286000e-02     1     2     8     8
-1.3002200000e-05     1     2     8     9
-4.5798000000e-06     1     2     8    10
-8.3250900000e-05     1     2     8    11
-1.0075872000e-03     1     2     8    12
 5.0491577000e-03     1     2     8    13
 1.3395639000e-02     1     2     9     1
-1.6827762300e-02     1     2     9     3
 2.6635840000e-04     1     2     9     4
 5.0841960000e-04     1     2     9     5
 7.3254450000e-04     1     2     9     6
-2.5940000000e-07     1     2     9     7
-1.0281100000e-05     1     2     9     8
 1.0648136970e-01     1     2     9     9
 1.0410820000e-04     1     2     9    10
 3.1338700000e-05     1     2     9    11
 7.2732020000e-04     1     2     9    12
-1.1644561000e-03     1     2     9    13
 2.3533860000e-04     1     2    10     1
-8.1468300000e-05     1     2    10     3
-1.0236300000e-05     1     2    10     4
 6.5674000000e-06     1     2    10     5
-5.5930800000e-05     1     2    10     6
 3.8633300000e-05     1     2    10     7
-5.2873000000e-06     1     2    10     8
 1.7565890000e-04     1     2    10     9
 8.0390191500e-02     1     2    10    10
 1.6556000000e-06     1     2    10    11
 4.6775300000e-05     1     2    10    12
-2.5363500000e-05     1     2    10    13
 7.1274300000e-05     1     2    11     1
-2.2525400000e-05     1     2    11     3
-8.2141600000e-05     1     2    11     4
 1.1446920000e-04     1     2    11     5
-1.7089700000e-05     1     2    11     6
 2.7393740000e-04     1     2    11     7
-1.5862250000e-04     1     2    11     8
 5.3237200000e-05     1     2    11     9
 1.6611000000e-06     1     2    11    10
 8.0400579300e-02     1     2    11    11
 2.1233850000e-04     1     2    11    12
-7.3248800000e-05     1     2    11    13
 1.5627567000e-03     1     2    12     1
-5.3548540000e-04     1     2    12     3
-3.3941996000e-03     1     2    12     4
 2.3682456000e-03     1     2    12     5
-3.9961470000e-04     1     2    12     6
 9.5938448000e-03     1     2    12     7
-1.8920507000e-03     1     2    12     8
 1.2168543000e-03     1     2    12     9
 4.7143200000e-05     1     2    12    10
 2.1316750000e-04     1     2    12    11
 9.0676073600e-02     1     2    12    12
-4.0433300000e-05     1     2    12    13
-2.4978511000e-03     1     2    13     1
 7.2670990000e-04     1     2    13     3
-2.4107403000e-03     1     2    13     4
-3.3417892000e-03     1     2    13     5
 6.6492640000e-04     1     2    13     6
 2.0793086000e-03     1     2    13     7
 9.4545269000e-03     1     2    13     8
-1.9401623000e-03     1     2    13     9
-2.5526100000e-05     1     2    13    10
-7.3427900000e-05     1     2    13    11
-3.8071800000e-05     1     2    13    12
 9.0742825600e-02     1     2    13    13
 1.0771600900e-02     1     3     2     1
 3.9542775900e-02     1     3     2     2
-2.2058000000e-06     1     3     2     4
-4.2445000000e-06     1     3     2     5
 1.0577518900e-02     1     3     2     6
-1.0221780000e-04     1     3     2     7
-1.2153309000e-03     1     3     2     8
-3.5189779100e-02     1     3     2     9
-1.6078630000e-04     1     3     2    10
-4.4095300000e-05     1     3     2    11
-1.0624024000e-03     1     3     2    12
 1.4359262000e-03     1     3     2    13
-1.4067077470e-01     1     3     3     1
-8.5411768200e-02     1     3     3     2
 6.6859310000e-04     1     3     3     4
 1.2767559000e-03     1     3     3     5
-2.7452871200e-02     1     3     3     6
 6.1691500000e-05     1     3     3     7
 4.2375720000e-04     1     3     3     8
 1.6210998000e-03     1     3     3     9
-7.3598170000e-04     1     3     3    10
-2.0079560000e-04     1     3     3    11
-5.0232484000e-03     1     3     3    12
 5.8620445000e-03     1     3     3    13
 7.5676900000e-05     1     3     4     1
 4.2299400000e-05     1     3     4     2
 4.0251095700e-02     1     3     4     4
-3.4900000000e-08     1     3     4     5
 1.9419400000e-04     1     3     4     6
 5.3446297000e-03     1     3     4     7
 2.3225086000e-03     1     3     4     8
-1.5160180000e-04     1     3     4     9
 5.2963540000e-04     1     3     4    10
 4.1942590000e-04     1     3     4    11
-3.1868722900e-02     1     3     4    12
-2.2744950100e-02     1     3     4    13
 1.4443930000e-04     1     3     5     1
 8.0765400000e-05     1     3     5     2
-9.1300000000e-08     1     3     5     4
 4.0251357400e-02     1     3     5     5
 3.4630060000e-04     1     3     5     6
-2.3406874000e-03     1     3     5     7
 5.3472745000e-03     1     3     5     8
-2.8962870000e-04     1     3     5     9
 1.2611550000e-03     1     3     5    10
 3.9186950000e-04     1     3     5    11
 2.2350916600e-02     1     3     5    12
-3.1460983000e-02     1     3     5    13
-6.9837270000e-04     1     3     6     1
-3.1388762000e-03     1     3     6     2
 1.8298000000e-06     1     3     6     4
 4.2752000000e-06     1     3     6     5
 3.9346896100e-02     1     3     6     6
-4.8348000000e-06     1     3     6     7
-1.3249620000e-04     1     3     6     8
-1.5537984600e-02     1     3     6     9
-9.0264000000e-05     1     3     6    10
-2.5629800000e-05     1     3     6    11
-6.5088470000e-04     1     3     6    12
 9.5817020000e-04     1     3     6    13
 1.6477840000e-04     1     3     7     1
 4.9304300000e-05     1     3     7     2
-3.6826260000e-04     1     3     7     4
 1.6012880000e-04     1     3     7     5
 5.0355100000e-05     1     3     7     6
 4.4085172900e-02     1     3     7     7
-2.6453000000e-06     1     3     7     8
 2.9839000000e-05     1     3     7     9
 1.4804900000e-05     1     3     7    10
 5.7507900000e-05     1     3     7    11
 1.0443121400e-02     1     3     7    12
 2.2745286000e-03     1     3     7    13
 2.2029862000e-03     1     3     8     1
 6.2022180000e-04     1     3     8     2
-1.6070420000e-04     1     3     8     4
-3.6817620000e-04     1     3     8     5
 6.3423210000e-04     1     3     8     6
 1.2553000000e-06     1     3     8     7
 4.4083675100e-02     1     3     8     8
 1.7912290000e-04     1     3     8     9
-2.1094160000e-04     1     3     8    10
-1.3676380000e-04     1     3     8    11
-2.0894605000e-03     1     3     8    12
 1.0331453200e-02     1     3     8    13
 6.2668159600e-02     1     3     9     1
 1.6827762300e-02     1     3     9     2
 5.6480000000e-07     1     3     9     4
 1.0986000000e-06     1     3     9     5
 8.0579346000e-03     1     3     9     6
-5.5472000000e-06     1     3     9     7
 9.8751100000e-05     1     3     9     8
 4.5555958100e-02     1     3     9     9
 9.6122800000e-05     1     3     9    10
 2.7629800000e-05     1     3     9    11
 7.5690080000e-04     1     3     9    12
-1.0702539000e-03     1     3     9    13
 9.0111770000e-04     1     3    10     1
 8.1468300000e-05     1     3    10     2
-2.7155000000e-06     1     3    10     4
 3.8721000000e-06     1     3    10     5
 5.7435600000e-05     1     3    10     6
 3.6538000000e-06     1     3    10     7
 1.9694020000e-04     1     3    10     8
-9.8463500000e-05     1     3    10     9
 4.0755652400e-02     1     3    10    10
-2.7545000000e-06     1     3    10    11
-2.5823600000e-05     1     3    10    12
 1.6000330000e-04     1     3    10    13
 2.5088420000e-04     1     3    11     1
 2.2525400000e-05     1     3    11     2
-1.7802200000e-05     1     3    11     4
 2.5601800000e-05     1     3    11     5
 1.6237400000e-05     1     3    11     6
 8.3141600000e-05     1     3    11     7
 4.5883700000e-05     1     3    11     8
-2.7330300000e-05     1     3    11     9
 2.0673000000e-06     1     3    11    10
 4.0757061400e-02     1     3    11    11
 1.4467120000e-04     1     3    11    12
 2.5471600000e-05     1     3    11    13
 5.8956344000e-03     1     3    12     1
 5.3548540000e-04     1     3    12     2
-7.8463100000e-04     1     3    12     4
 5.4104970000e-04     1     3    12     5
 3.3375530000e-04     1     3    12     6
-2.9220480000e-03     1     3    12     7
 5.7932340000e-04     1     3    12     8
-5.6461470000e-04     1     3    12     9
 4.3058000000e-06     1     3    12    10
-1.3168960000e-04     1     3    12    11
 4.1405469000e-02     1     3    12    12
 8.4754000000e-06     1     3    12    13
-8.1201285000e-03     1     3    13     1
-7.2670990000e-04     1     3    13     2
-5.5269060000e-04     1     3    13     4
-7.6464710000e-04     1     3    13     5
-4.6191840000e-04     1     3    13     6
-6.3284600000e-04     1     3    13     7
-2.8754325000e-03     1     3    13     8
 7.7731580000e-04     1     3    13     9
-1.1361570000e-04     1     3    13    10
-7.6180000000e-06     1     3    13    11
-3.5602500000e-05     1     3    13    12
 4.1416426200e-02     1     3    13    13
-1.7623550000e-04     1     4     2     1
-6.5347720000e-04     1     4     2     2
 2.2058000000e-06     1     4     2     3
 1.1930000000e-07     1     4     2     5
-2.0765890000e-04     1     4     2     6
-3.2622652800e-02     1     4     2     7
-1.4169602800e-02     1     4     2     8
 5.6167750000e-04     1     4     2     9
-2.8190300000e-05     1     4     2    10
-1.7336190000e-04     1     4     2    11
-7.5116038000e-03     1     4     2    12
-5.3332071000e-03     1     4     2    13
 7.5676900000e-05     1     4     3     1
 4.4505200000e-05     1     4     3     2
-6.6859310000e-04     1     4     3     3
 5.6400000000e-08     1     4     3     5
 1.9236420000e-04     1     4     3     6
 5.7128923000e-03     1     4     3     7
 2.4832128000e-03     1     4     3     8
-1.5216660000e-04     1     4     3     9
 5.3235090000e-04     1     4     3    10
 4.3722810000e-04     1     4     3    11
-3.1084091900e-02     1     4     3    12
-2.2192259500e-02     1     4     3    13
-1.3545374440e-01     1     4     4     1
-8.2668312700e-02     1     4     4     2
-4.0251095700e-02     1     4     4     3
 1.2649812000e-03     1     4     4     5
-1.6263058400e-02     1     4     4     6
-1.5338210000e-04     1     4     4     7
-9.6310900000e-05     1     4     4     8
-7.5617152000e-03     1     4     4     9
-1.9858248500e-02     1     4     4    10
 3.0473537300e-02     1     4     4    11
 2.6440977000e-03     1     4     4    12
-2.9063163000e-03     1     4     4    13
-2.4374000000e-06     1     4     5     1
-1.3975000000e-06     1     4     5     2
 9.1300000000e-08     1     4     5     3
-6.6247420000e-04     1     4     5     5
-5.9839000000e-06     1     4     5     6
-1.4550470000e-04     1     4     5     7
-1.6745700000e-04     1     4     5     8
 4.3445000000e-06     1     4     5     9
 3.0824524900e-02     1     4     5    10
 2.0506522400e-02     1     4     5    11
-1.9980300000e-04     1     4     5    12
 1.5197985000e-03     1     4     5    13
 6.4631500000e-05     1     4     6     1
 6.9905400000e-05     1     4     6     2
-1.8298000000e-06     1     4     6     3
-8.5900000000e-08     1     4     6     5
-6.3372070000e-04     1     4     6     6
-4.0999664000e-03     1     4     6     7
-1.7814774000e-03     1     4     6     8
 2.6217100000e-04     1     4     6     9
-1.5658000000e-06     1     4     6    10
-6.6790100000e-05     1     4     6    11
-3.1398721000e-03     1     4     6    12
-2.2392917000e-03     1     4     6    13
 5.9035677800e-02     1     4     7     1
 1.6765751900e-02     1     4     7     2
 3.6826260000e-04     1     4     7     3
-1.7917200000e-05     1     4     7     5
 1.6715480000e-02     1     4     7     6
-7.3418560000e-04     1     4     7     7
 7.3942000000e-06     1     4     7     8
 5.3787751000e-03     1     4     7     9
 4.9717482000e-03     1     4     7    10
-3.5263381000e-03     1     4     7    11
-7.1097490000e-04     1     4     7    12
 9.5275210000e-04     1     4     7    13
 2.5634399100e-02     1     4     8     1
 7.2788893000e-03     1     4     8     2
 1.6070420000e-04     1     4     8     3
 1.1600000000e-06     1     4     8     5
 7.2591583000e-03     1     4     8     6
-1.2360300000e-05     1     4     8     7
-7.3002760000e-04     1     4     8     8
 2.3374336000e-03     1     4     8     9
-3.0663040000e-03     1     4     8    10
-5.0581457000e-03     1     4     8    11
-4.6649900000e-05     1     4     8    12
 1.8345590000e-04     1     4     8    13
-9.9299680000e-04     1     4     9     1
-2.6635840000e-04     1     4     9     2
-5.6480000000e-07     1     4     9     3
 4.3000000000e-08     1     4     9     5
-1.1838880000e-04     1     4     9     6
 3.1840205000e-03     1     4     9     7
 1.3824420000e-03     1     4     9     8
-7.6295460000e-04     1     4     9     9
-1.2453000000e-06     1     4     9    10
 4.9228900000e-05     1     4     9    11
 3.0461532000e-03     1     4     9    12
 2.1848648000e-03     1     4     9    13
 1.4352220000e-04     1     4    10     1
 1.0236300000e-05     1     4    10     2
 2.7155000000e-06     1     4    10     3
 1.8050000000e-07     1     4    10     5
 2.1469000000e-06     1     4    10     6
-4.1793434000e-03     1     4    10     7
 3.1697315000e-03     1     4    10     8
-2.3516300000e-05     1     4    10     9
-6.7701620000e-04     1     4    10    10
-1.3405140000e-04     1     4    10    11
-3.8556082000e-03     1     4    10    12
 1.9541553000e-03     1     4    10    13
 8.8144250000e-04     1     4    11     1
 8.2141600000e-05     1     4    11     2
 1.7802200000e-05     1     4    11     3
-1.0927000000e-06     1     4    11     5
 5.1980800000e-05     1     4    11     6
 2.2967655000e-03     1     4    11     7
 4.2479959000e-03     1     4    11     8
-1.0603790000e-04     1     4    11     9
 1.1809690000e-04     1     4    11    10
-6.9062480000e-04     1     4    11    11
 1.1390818000e-03     1     4    11    12
 3.9313533000e-03     1     4    11    13
 3.7842864200e-02     1     4    12     1
 3.3941996000e-03     1     4    12     2
 7.8463100000e-04     1     4    12     3
-3.2005000000e-05     1     4    12     5
 1.9062321000e-03     1     4    12     6
 5.1222300000e-05     1     4    12     7
-1.0683450000e-04     1     4    12     8
-4.6396390000e-03     1     4    12     9
 2.9411342000e-03     1     4    12    10
-1.4759888000e-03     1     4    12    11
-8.1904740000e-04     1     4    12    12
 1.3627527000e-03     1     4    12    13
 2.6936839100e-02     1     4    13     1
 2.4107403000e-03     1     4    13     2
 5.5269060000e-04     1     4    13     3
-4.4413000000e-06     1     4    13     5
 1.3535052000e-03     1     4    13     6
-8.2677200000e-05     1     4    13     7
 5.3662600000e-05     1     4    13     8
-3.3016725000e-03     1     4    13     9
-9.4861260000e-04     1     4    13    10
-3.0959715000e-03     1     4    13    11
-1.2839695000e-03     1     4    13    12
-5.4828040000e-04     1     4    13    13
-3.3604610000e-04     1     5     2     1
-1.2475011000e-03     1     5     2     2
 4.2445000000e-06     1     5     2     3
-1.1930000000e-07     1     5     2     4
-3.0530760000e-04     1     5     2     6
 1.4178719100e-02     1     5     2     7
-3.2602113000e-02     1     5     2     8
 1.0721646000e-03     1     5     2     9
 2.4139900000e-05     1     5     2    10
 2.3714920000e-04     1     5     2    11
 5.2380158000e-03     1     5     2    12
-7.3889654000e-03     1     5     2    13
 1.4443930000e-04     1     5     3     1
 8.5009900000e-05     1     5     3     2
-1.2767559000e-03     1     5     3     3
-5.6400000000e-08     1     5     3     4
 3.4202540000e-04     1     5     3     6
-2.5008162000e-03     1     5     3     7
 5.7154507000e-03     1     5     3     8
-2.9072730000e-04     1     5     3     9
 1.2572829000e-03     1     5     3    10
 3.6626770000e-04     1     5     3    11
 2.1809866900e-02     1     5     3    12
-3.0696335900e-02     1     5     3    13
-2.4374000000e-06     1     5     4     1
-1.5168000000e-06     1     5     4     2
 3.4900000000e-08     1     5     4     3
-1.2649812000e-03     1     5     4     4
-5.8980000000e-06     1     5     4     6
-1.2758750000e-04     1     5     4     7
-1.6861700000e-04     1     5     4     8
 4.3015000000e-06     1     5     4     9
 3.0824344400e-02     1     5     4    10
 2.0507615100e-02     1     5     4    11
-1.6779800000e-04     1     5     4    12
 1.5242398000e-03     1     5     4    13
-1.3546142670e-01     1     5     5     1
-8.2672103800e-02     1     5     5     2
-4.0251357400e-02     1     5     5     3
 6.6247420000e-04     1     5     5     4
-1.6271693300e-02     1     5     5     6
 1.6509110000e-04     1     5     5     7
-3.5102470000e-04     1     5     5     8
-7.5564673000e-03     1     5     5     9
 2.0522830200e-02     1     5     5    10
-3.0294455700e-02     1     5     5    11
 1.9197109000e-03     1     5     5    12
-2.2561645000e-03     1     5     5    13
-3.7023000000e-05     1     5     6     1
 8.5681800000e-05     1     5     6     2
-4.2752000000e-06     1     5     6     3
 8.5900000000e-08     1     5     6     4
-1.2563167000e-03     1     5     6     6
 1.7827112000e-03     1     5     6     7
-4.0960110000e-03     1     5     6     8
 4.8169250000e-04     1     5     6     9
 8.3042000000e-06     1     5     6    10
 8.1973700000e-05     1     5     6    11
 2.1988450000e-03     1     5     6    12
-3.1087164000e-03     1     5     6    13
-2.5640484400e-02     1     5     7     1
-7.2832695000e-03     1     5     7     2
-1.6012880000e-04     1     5     7     3
 1.7917200000e-05     1     5     7     4
-7.2634618000e-03     1     5     7     6
-1.3787266000e-03     1     5     7     7
-8.1818000000e-06     1     5     7     8
-2.3421374000e-03     1     5     7     9
-2.9997001000e-03     1     5     7    10
-5.0434051000e-03     1     5     7    11
 1.5216830000e-04     1     5     7    12
-5.8697190000e-04     1     5     7    13
 5.8988442700e-02     1     5     8     1
 1.6754627100e-02     1     5     8     2
 3.6817620000e-04     1     5     8     3
-1.1600000000e-06     1     5     8     4
 1.6705450600e-02     1     5     8     6
-3.0760400000e-05     1     5     8     7
-1.3745945000e-03     1     5     8     8
 5.3784056000e-03     1     5     8     9
-5.1342899000e-03     1     5     8    10
 3.4752730000e-03     1     5     8    11
-6.5539630000e-04     1     5     8    12
 7.0084030000e-04     1     5     8    13
-1.8953328000e-03     1     5     9     1
-5.0841960000e-04     1     5     9     2
-1.0986000000e-06     1     5     9     3
-4.3000000000e-08     1     5     9     4
-2.3707980000e-04     1     5     9     6
-1.3831575000e-03     1     5     9     7
 3.1815549000e-03     1     5     9     8
-1.4567784000e-03     1     5     9     9
-6.0879000000e-06     1     5     9    10
-7.7711900000e-05     1     5     9    11
-2.1405411000e-03     1     5     9    12
 3.0232188000e-03     1     5     9    13
-1.2438790000e-04     1     5    10     1
-6.5674000000e-06     1     5    10     2
-3.8721000000e-06     1     5    10     3
-1.8050000000e-07     1     5    10     4
-4.1124000000e-06     1     5    10     6
 3.1589186000e-03     1     5    10     7
 4.2093496000e-03     1     5    10     8
 3.5474700000e-05     1     5    10     9
-1.2830956000e-03     1     5    10    10
 4.9291000000e-06     1     5    10    11
 1.9332886000e-03     1     5    10    12
 4.0250755000e-03     1     5    10    13
-1.2084523000e-03     1     5    11     1
-1.1446920000e-04     1     5    11     2
-2.5601800000e-05     1     5    11     3
 1.0927000000e-06     1     5    11     4
-6.6030300000e-05     1     5    11     6
 4.2449729000e-03     1     5    11     7
-2.2872857000e-03     1     5    11     8
 1.4477730000e-04     1     5    11     9
 1.7439200000e-05     1     5    11    10
-1.2754075000e-03     1     5    11    11
 3.9042708000e-03     1     5    11    12
-1.0408995000e-03     1     5    11    13
-2.6424428100e-02     1     5    12     1
-2.3682456000e-03     1     5    12     2
-5.4104970000e-04     1     5    12     3
 3.2005000000e-05     1     5    12     4
-1.3324724000e-03     1     5    12     6
-6.4605500000e-05     1     5    12     7
 8.9656800000e-05     1     5    12     8
 3.2372739000e-03     1     5    12     9
-8.9682720000e-04     1     5    12    10
-3.0569358000e-03     1     5    12    11
-1.2306403000e-03     1     5    12    12
-2.1842330000e-04     1     5    12    13
 3.7245935800e-02     1     5    13     1
 3.3417892000e-03     1     5    13     2
 7.6464710000e-04     1     5    13     3
 4.4413000000e-06     1     5    13     4