&FCI NORB= 13,NELEC=  2,MS2=0,
 ORBSYM=1,1,1,1,1,1,1,1,1,1,1,1,1
 ISYM=1,
&END
-4.7516399600e-02     1     1     2     2
-4.2046190900e-02     1     1     2     3
-1.7366370900e-02     1     1     2     4
 9.5347000000e-06     1     1     2     5
 2.1226400000e-05     1     1     2     6
 1.0640500000e-02     1     1     2     7
 2.0120000000e-06     1     1     2     8
 1.2184000000e-06     1     1     2     9
 2.5995605000e-03     1     1     2    10
 2.6102843000e-03     1     1     2    11
-1.4350740000e-04     1     1     2    12
-2.4397000000e-06     1     1     2    13
-4.2046190900e-02     1     1     3     2
 7.6229612300e-02     1     1     3     3
-2.9225610000e-03     1     1     3     4
 1.2098000000e-06     1     1     3     5
 3.5313000000e-06     1     1     3     6
-1.2115742000e-03     1     1     3     7
 3.9216600000e-05     1     1     3     8
-3.3513300000e-05     1     1     3     9
-8.2981495500e-02     1     1     3    10
 9.9798629000e-03     1     1     3    11
-5.6712040000e-04     1     1     3    12
 1.7382000000e-05     1     1     3    13
-1.7366370900e-02     1     1     4     2
-2.9225610000e-03     1     1     4     3
 8.8303822000e-02     1     1     4     4
 1.5843000000e-06     1     1     4     5
 5.1738000000e-06     1     1     4     6
 7.0401863200e-02     1     1     4     7
 8.9160600000e-05     1     1     4     8
-3.7133700000e-05     1     1     4     9
-1.0927323700e-02     1     1     4    10
-1.6536352500e-02     1     1     4    11
 9.3480620000e-04     1     1     4    12
-1.7369500000e-05     1     1     4    13
 9.5347000000e-06     1     1     5     2
 1.2098000000e-06     1     1     5     3
 1.5843000000e-06     1     1     5     4
 9.3318354300e-02     1     1     5     5
-3.1870000000e-07     1     1     5     6
-2.7654900000e-05     1     1     5     7
-3.4383359000e-03     1     1     5     8
-6.7642049800e-02     1     1     5     9
 3.2599600000e-05     1     1     5    10
-1.0197583000e-03     1     1     5    11
-1.8411417000e-02     1     1     5    12
 3.3561790000e-04     1     1     5    13
 2.1226400000e-05     1     1     6     2
 3.5313000000e-06     1     1     6     3
 5.1738000000e-06     1     1     6     4
-3.1870000000e-07     1     1     6     5
 9.3315821300e-02     1     1     6     6
-8.8738200000e-05     1     1     6     7
 6.7647716300e-02     1     1     6     8
-3.4382823000e-03     1     1     6     9
 4.8697700000e-05     1     1     6    10
-1.9444200000e-05     1     1     6    11
 2.6197510000e-04     1     1     6    12
 1.8422957000e-02     1     1     6    13
 1.0640500000e-02     1     1     7     2
-1.2115742000e-03     1     1     7     3
 7.0401863200e-02     1     1     7     4
-2.7654900000e-05     1     1     7     5
-8.8738200000e-05     1     1     7     6
 1.2131843690e-01     1     1     7     7
 2.6494000000e-06     1     1     7     8
-1.4760000000e-07     1     1     7     9
 3.6500823000e-03     1     1     7    10
-1.1079697000e-02     1     1     7    11
 5.9506250000e-04     1     1     7    12
 3.5791900000e-05     1     1     7    13
 2.0120000000e-06     1     1     8     2
 3.9216600000e-05     1     1     8     3
 8.9160600000e-05     1     1     8     4
-3.4383359000e-03     1     1     8     5
 6.7647716300e-02     1     1     8     6
 2.6494000000e-06     1     1     8     7
 1.3124405130e-01     1     1     8     8
 1.3167000000e-06     1     1     8     9
 1.0660000000e-07     1     1     8    10
 6.6669000000e-06     1     1     8    11
 6.9038860000e-04     1     1     8    12
 1.0619169900e-02     1     1     8    13
 1.2184000000e-06     1     1     9     2
-3.3513300000e-05     1     1     9     3
-3.7133700000e-05     1     1     9     4
-6.7642049800e-02     1     1     9     5
-3.4382823000e-03     1     1     9     6
-1.4760000000e-07     1     1     9     7
 1.3167000000e-06     1     1     9     8
 1.3123638510e-01     1     1     9     9
-5.3000000000e-09     1     1     9    10
 5.9188160000e-04     1     1     9    11
 1.0598953200e-02     1     1     9    12
-7.3343200000e-04     1     1     9    13
 2.5995605000e-03     1     1    10     2
-8.2981495500e-02     1     1    10     3
-1.0927323700e-02     1     1    10     4
 3.2599600000e-05     1     1    10     5
 4.8697700000e-05     1     1    10     6
 3.6500823000e-03     1     1    10     7
 1.0660000000e-07     1     1    10     8
-5.3000000000e-09     1     1    10     9
 1.3998764190e-01     1     1    10    10
-3.1486732000e-03     1     1    10    11
 1.8082860000e-04     1     1    10    12
-5.2956000000e-06     1     1    10    13
 2.6102843000e-03     1     1    11     2
 9.9798629000e-03     1     1    11     3
-1.6536352500e-02     1     1    11     4
-1.0197583000e-03     1     1    11     5
-1.9444200000e-05     1     1    11     6
-1.1079697000e-02     1     1    11     7
 6.6669000000e-06     1     1    11     8
 5.9188160000e-04     1     1    11     9
-3.1486732000e-03     1     1    11    10
 1.2756524710e-01     1     1    11    11
 2.8190200000e-05     1     1    11    12
 1.2760000000e-05     1     1    11    13
-1.4350740000e-04     1     1    12     2
-5.6712040000e-04     1     1    12     3
 9.3480620000e-04     1     1    12     4
-1.8411417000e-02     1     1    12     5
 2.6197510000e-04     1     1    12     6
 5.9506250000e-04     1     1    12     7
 6.9038860000e-04     1     1    12     8
 1.0598953200e-02     1     1    12     9
 1.8082860000e-04     1     1    12    10
 2.8190200000e-05     1     1    12    11
 1.2917491320e-01     1     1    12    12
 1.3351000000e-06     1     1    12    13
-2.4397000000e-06     1     1    13     2
 1.7382000000e-05     1     1    13     3
-1.7369500000e-05     1     1    13     4
 3.3561790000e-04     1     1    13     5
 1.8422957000e-02     1     1    13     6
 3.5791900000e-05     1     1    13     7
 1.0619169900e-02     1     1    13     8
-7.3343200000e-04     1     1    13     9
-5.2956000000e-06     1     1    13    10
 1.2760000000e-05     1     1    13    11
 1.3351000000e-06     1     1    13    12
 1.2917399040e-01     1     1    13    13
 4.7516399600e-02     1     2     2     1
-1.8747312300e-02     1     2     2     3
-2.4363416400e-02     1     2     2     4
 1.0918400000e-05     1     2     2     5
 2.3349600000e-05     1     2     2     6
 5.6102339000e-03     1     2     2     7
 2.1700000000e-07     1     2     2     8
 1.6741000000e-06     1     2     2     9
 3.5833617000e-03     1     2     2    10
 3.5595642000e-03     1     2     2    11
-2.0002310000e-04     1     2     2    12
 3.3340000000e-06     1     2     2    13
 4.2046190900e-02     1     2     3     1
 7.0517102500e-02     1     2     3     3
-8.6677975000e-03     1     2     3     4
 3.9628000000e-06     1     2     3     5
 8.8171000000e-06     1     2     3     6
 7.4980034000e-03     1     2     3     7
 2.8685800000e-05     1     2     3     8
-2.1227400000e-05     1     2     3     9
-5.0747692500e-02     1     2     3    10
 2.7596604000e-03     1     2     3    11
-1.5745850000e-04     1     2     3    12
 6.0360000000e-06     1     2     3    13
 1.7366370900e-02     1     2     4     1
-1.1578493200e-02     1     2     4     3
 8.1298711100e-02     1     2     4     4
 3.6017000000e-06     1     2     4     5
 8.7813000000e-06     1     2     4     6
 4.9713315500e-02     1     2     4     7
 5.8637100000e-05     1     2     4     8
-2.2359000000e-05     1     2     4     9
-4.2965648000e-03     1     2     4    10
-8.5074510000e-04     1     2     4    11
 4.7668200000e-05     1     2     4    12
 1.2677000000e-06     1     2     4    13
-9.5347000000e-06     1     2     5     1
 5.1792000000e-06     1     2     5     3
 3.4296000000e-06     1     2     5     4
 8.8044559900e-02     1     2     5     5
-2.6360000000e-07     1     2     5     6
-2.0388800000e-05     1     2     5     7
-2.2943320000e-03     1     2     5     8
-4.5143138200e-02     1     2     5     9
 2.0355700000e-05     1     2     5    10
-1.4368120000e-04     1     2     5    11
-2.6509557000e-03     1     2     5    12
 4.8671500000e-05     1     2     5    13
-2.1226400000e-05     1     2     6     1
 1.1337400000e-05     1     2     6     3
 7.8922000000e-06     1     2     6     4
-9.9000000000e-08     1     2     6     5
 8.8043270400e-02     1     2     6     6
-6.3186600000e-05     1     2     6     7
 4.5144123500e-02     1     2     6     8
-2.2946317000e-03     1     2     6     9
 2.9440700000e-05     1     2     6    10
-1.7175000000e-06     1     2     6    11
 3.6320900000e-05     1     2     6    12
 2.6429903000e-03     1     2     6    13
-1.0640500000e-02     1     2     7     1
 7.8612565000e-03     1     2     7     3
 3.5373892900e-02     1     2     7     4
-1.4611700000e-05     1     2     7     5
-4.6192300000e-05     1     2     7     6
 9.4815267400e-02     1     2     7     7
-1.8148000000e-06     1     2     7     8
 1.6174000000e-06     1     2     7     9
 8.4846128000e-03     1     2     7    10
-8.6028084000e-03     1     2     7    11
 4.6116330000e-04     1     2     7    12
 2.3111300000e-05     1     2     7    13
-2.0120000000e-06     1     2     8     1
 2.3705900000e-05     1     2     8     3
 4.3151000000e-05     1     2     8     4
-1.6580594000e-03     1     2     8     5
 3.2624904300e-02     1     2     8     6
-1.2633000000e-06     1     2     8     7
 1.0485893230e-01     1     2     8     8
 9.3710000000e-07     1     2     8     9
 1.7583000000e-06     1     2     8    10
 5.6502000000e-06     1     2     8    11
 5.5377890000e-04     1     2     8    12
 8.5125219000e-03     1     2     8    13
-1.2184000000e-06     1     2     9     1
-1.7228900000e-05     1     2     9     3
-1.6843700000e-05     1     2     9     4
-3.2623900700e-02     1     2     9     5
-1.6583416000e-03     1     2     9     6
 9.0180000000e-07     1     2     9     7
 9.7840000000e-07     1     2     9     8
 1.0485257430e-01     1     2     9     9
 6.2850000000e-07     1     2     9    10
 4.7729350000e-04     1     2     9    11
 8.4973149000e-03     1     2     9    12
-5.8790800000e-04     1     2     9    13
-2.5995605000e-03     1     2    10     1
-4.2121642800e-02     1     2    10     3
-4.9297877000e-03     1     2    10     4
 1.5818800000e-05     1     2    10     5
 2.3724700000e-05     1     2    10     6
 6.9329388000e-03     1     2    10     7
 8.6010000000e-07     1     2    10     8
 8.4960000000e-07     1     2    10     9
 1.1245774760e-01     1     2    10    10
-3.2726460000e-03     1     2    10    11
 1.8809550000e-04     1     2    10    12
-7.6835000000e-06     1     2    10    13
-2.6102843000e-03     1     2    11     1
 2.8112361000e-03     1     2    11     3
-1.1642027000e-03     1     2    11     4
-1.3544730000e-04     1     2    11     5
-2.3948000000e-06     1     2    11     6
-1.0161937900e-02     1     2    11     7
 6.0864000000e-06     1     2    11     8
 5.5076860000e-04     1     2    11     9
-3.7094906000e-03     1     2    11    10
 1.0060720750e-01     1     2    11    11
 5.6896500000e-05     1     2    11    12
 6.6739000000e-06     1     2    11    13
 1.4350740000e-04     1     2    12     1
-1.6009030000e-04     1     2    12     3
 6.3518800000e-05     1     2    12     4
-2.4750855000e-03     1     2    12     5
 3.4343000000e-05     1     2    12     6
 5.5222110000e-04     1     2    12     7
 6.3958420000e-04     1     2    12     8
 9.8098581000e-03     1     2    12     9
 2.1238180000e-04     1     2    12    10
 5.7464700000e-05     1     2    12    11
 1.0221918240e-01     1     2    12    12
 8.8000000000e-07     1     2    12    13
 2.4397000000e-06     1     2    13     1
 5.7607000000e-06     1     2    13     3
 3.3064000000e-06     1     2    13     4
 4.5324000000e-05     1     2    13     5
 2.4706001000e-03     1     2    13     6
 1.6196300000e-05     1     2    13     7
 9.8264112000e-03     1     2    13     8
-6.7866270000e-04     1     2    13     9
-7.5658000000e-06     1     2    13    10
 5.6388000000e-06     1     2    13    11
 9.7880000000e-07     1     2    13    12
 1.0221959460e-01     1     2    13    13
 4.2046190900e-02     1     3     2     1
 1.8747312300e-02     1     3     2     2
 2.9106957000e-03     1     3     2     4
-1.2164000000e-06     1     3     2     5
-2.5203000000e-06     1     3     2     6
-3.6325310000e-04     1     3     2     7
 4.9799000000e-06     1     3     2     8
-3.9985000000e-06     1     3     2     9
-8.6260497000e-03     1     3     2    10
-5.1575700000e-05     1     3     2    11
 2.6318000000e-06     1     3     2    12
 2.7530000000e-07     1     3     2    13
-7.6229612300e-02     1     3     3     1
-7.0517102500e-02     1     3     3     2
 2.6555449000e-03     1     3     3     4
-4.2336000000e-06     1     3     3     5
-9.5512000000e-06     1     3     3     6
 1.4011499000e-02     1     3     3     7
-1.6894500000e-05     1     3     3     8
 1.7009600000e-05     1     3     3     9
 3.9139751200e-02     1     3     3    10
-7.0886004000e-03     1     3     3    11
 4.0777950000e-04     1     3     3    12
-1.8890400000e-05     1     3     3    13
 2.9225610000e-03     1     3     4     1
 1.1578493200e-02     1     3     4     2
-5.4558522700e-02     1     3     4     4
-6.2490000000e-07     1     3     4     5
-1.6317000000e-06     1     3     4     6
-3.4222791400e-02     1     3     4     7
-4.9930800000e-05     1     3     4     8
 2.1531900000e-05     1     3     4     9
 6.0289024000e-03     1     3     4    10
 1.5821965300e-02     1     3     4    11
-8.9136170000e-04     1     3     4    12
 1.0374000000e-05     1     3     4    13
-1.2098000000e-06     1     3     5     1
-5.1792000000e-06     1     3     5     2
-7.1510000000e-07     1     3     5     4
-5.6854697200e-02     1     3     5     5
 8.2400000000e-08     1     3     5     6
 1.3105100000e-05     1     3     5     7
 1.8516867000e-03     1     3     5     8
 3.6418165000e-02     1     3     5     9
-1.8239700000e-05     1     3     5    10
 9.1676680000e-04     1     3     5    11
 1.6527979800e-02     1     3     5    12
-3.0097970000e-04     1     3     5    13
-3.5313000000e-06     1     3     6     1
-1.1337400000e-05     1     3     6     2
-2.0955000000e-06     1     3     6     4
 9.3000000000e-08     1     3     6     5
-5.6853982300e-02     1     3     6     6
 4.3207300000e-05     1     3     6     7
-3.6422934300e-02     1     3     6     8
 1.8510927000e-03     1     3     6     9
-2.7284600000e-05     1     3     6    10
 2.1159500000e-05     1     3     6    11
-2.3643300000e-04     1     3     6    12
-1.6546716300e-02     1     3     6    13
 1.2115742000e-03     1     3     7     1
-7.8612565000e-03     1     3     7     2
-1.0959655100e-02     1     3     7     4
 4.4286000000e-06     1     3     7     5
 1.4022100000e-05     1     3     7     6
-5.5390427300e-02     1     3     7     7
-2.6997000000e-06     1     3     7     8
 1.9300000000e-06     1     3     7     9
 3.3035534000e-03     1     3     7    10
 6.7850213000e-03     1     3     7    11
-3.7922890000e-04     1     3     7    12
-1.4680000000e-06     1     3     7    13
-3.9216600000e-05     1     3     8     1
-2.3705900000e-05     1     3     8     2
-1.1630000000e-05     1     3     8     4
 4.8638180000e-04     1     3     8     5
-9.5777990000e-03     1     3     8     6
-4.9840000000e-07     1     3     8     7
-5.7687134800e-02     1     3     8     8
-2.2100000000e-07     1     3     8     9
-1.4489000000e-06     1     3     8    10
-4.9536000000e-06     1     3     8    11
-4.4909530000e-04     1     3     8    12
-6.9009973000e-03     1     3     8    13
 3.3513300000e-05     1     3     9     1
 1.7228900000e-05     1     3     9     2
 4.5732000000e-06     1     3     9     4
 9.5770506000e-03     1     3     9     5
 4.8668640000e-04     1     3     9     6
-3.8870000000e-07     1     3     9     7
-3.1570000000e-07     1     3     9     8
-5.7683767600e-02     1     3     9     9
 1.6591000000e-06     1     3     9    10
-3.8104020000e-04     1     3     9    11
-6.8927510000e-03     1     3     9    12
 4.7690720000e-04     1     3     9    13
 8.2981495500e-02     1     3    10     1
 4.2121642800e-02     1     3    10     2
 8.0276240000e-04     1     3    10     4
-3.3515000000e-06     1     3    10     5
-4.2293000000e-06     1     3    10     6
-1.1056703000e-03     1     3    10     7
-8.5770000000e-07     1     3    10     8
 5.2510000000e-07     1     3    10     9
-6.0429914800e-02     1     3    10    10
 2.5583834000e-03     1     3    10    11
-1.4326570000e-04     1     3    10    12
-1.1789000000e-06     1     3    10    13
-9.9798629000e-03     1     3    11     1
-2.8112361000e-03     1     3    11     2
 5.1213090000e-04     1     3    11     4
 6.0574800000e-05     1     3    11     5
 1.4871000000e-06     1     3    11     6
 3.4457848000e-03     1     3    11     7
-3.0714000000e-06     1     3    11     8
-1.9223980000e-04     1     3    11     9
 1.0503907000e-03     1     3    11    10
-4.7937856000e-02     1     3    11    11
-2.9980000000e-06     1     3    11    12
-5.2195000000e-06     1     3    11    13
 5.6712040000e-04     1     3    12     1
 1.6009030000e-04     1     3    12     2
-3.1091900000e-05     1     3    12     4
 1.1063107000e-03     1     3    12     5
-1.5652100000e-05     1     3    12     6
-1.8898300000e-04     1     3    12     7
-2.2777440000e-04     1     3    12     8
-3.5045185000e-03     1     3    12     9
-5.8587800000e-05     1     3    12    10
-4.1672000000e-06     1     3    12    11
-4.8557347500e-02     1     3    12    12
 5.1540000000e-07     1     3    12    13
-1.7382000000e-05     1     3    13     1
-5.7607000000e-06     1     3    13     2
 4.1575000000e-06     1     3    13     4
-2.0129300000e-05     1     3    13     5
-1.1047610000e-03     1     3    13     6
-8.6021000000e-06     1     3    13     7
-3.5073108000e-03     1     3    13     8
 2.4234500000e-04     1     3    13     9
-1.9869000000e-06     1     3    13    10
-3.8720000000e-06     1     3    13    11
 2.7760000000e-07     1     3    13    12
-4.8557207300e-02     1     3    13    13
 1.7366370900e-02     1     4     2     1
 2.4363416400e-02     1     4     2     2
-2.9106957000e-03     1     4     2     3
 1.7210000000e-07     1     4     2     5
 8.8910000000e-07     1     4     2     6
 1.4339422600e-02     1     4     2     7
 1.5486100000e-05     1     4     2     8
-5.5153000000e-06     1     4     2     9
 6.3322290000e-04     1     4     2    10
 3.1345760000e-04     1     4     2    11
-1.5850600000e-05     1     4     2    12
-2.0387000000e-06     1     4     2    13
 2.9225610000e-03     1     4     3     1
 8.6677975000e-03     1     4     3     2
-2.6555449000e-03     1     4     3     3
 9.0200000000e-08     1     4     3     5
 4.6380000000e-07     1     4     3     6
-2.3263136300e-02     1     4     3     7
-3.8300800000e-05     1     4     3     8
 1.6958700000e-05     1     4     3     9
 5.2261400000e-03     1     4     3    10
 1.5309834400e-02     1     4     3    11
-8.6026980000e-04     1     4     3    12
 6.2165000000e-06     1     4     3    13
-8.8303822000e-02     1     4     4     1
-8.1298711100e-02     1     4     4     2
 5.4558522700e-02     1     4     4     3
-3.9925000000e-06     1     4     4     5
-8.8009000000e-06     1     4     4     6
-9.0143896000e-03     1     4     4     7
-1.4325500000e-05     1     4     4     8
 5.9840000000e-07     1     4     4     9
-1.8922287100e-02     1     4     4    10
-2.8189800400e-02     1     4     4    11
 1.5923803000e-03     1     4     4    12
-1.4729100000e-05     1     4     4    13
-1.5843000000e-06     1     4     5     1
-3.4296000000e-06     1     4     5     2
 7.1510000000e-07     1     4     5     3
-9.8779610000e-04     1     4     5     5
 7.6400000000e-08     1     4     5     6
 9.9473000000e-06     1     4     5     7
 6.6078520000e-04     1     4     5     8
 1.3019635100e-02     1     4     5     9
-3.1977000000e-06     1     4     5    10
-1.6077581000e-03     1     4     5    11
-2.9051604600e-02     1     4     5    12
 5.2863210000e-04     1     4     5    13
-5.1738000000e-06     1     4     6     1
-7.8922000000e-06     1     4     6     2
 2.0955000000e-06     1     4     6     3
 4.4800000000e-08     1     4     6     5
-9.8755180000e-04     1     4     6     6
 2.6282300000e-05     1     4     6     7
-1.3012020600e-02     1     4     6     8
 6.6165060000e-04     1     4     6     9
-2.8068000000e-06     1     4     6    10
-2.2271200000e-05     1     4     6    11
 4.1563770000e-04     1     4     6    12
 2.9099379900e-02     1     4     6    13
-7.0401863200e-02     1     4     7     1
-3.5373892900e-02     1     4     7     2
 1.0959655100e-02     1     4     7     3
-7.2690000000e-07     1     4     7     5
-6.9670000000e-07     1     4     7     6
 6.0183738000e-03     1     4     7     7
 7.3435000000e-06     1     4     7     8
-6.1997000000e-06     1     4     7     9
-2.0135184300e-02     1     4     7    10
-5.0210239000e-03     1     4     7    11
 3.0063410000e-04     1     4     7    12
-1.4128000000e-05     1     4     7    13
-8.9160600000e-05     1     4     8     1
-4.3151000000e-05     1     4     8     2
 1.1630000000e-05     1     4     8     3
 9.9404000000e-05     1     4     8     5
-1.9604964000e-03     1     4     8     6
 3.7896000000e-06     1     4     8     7
 2.5820645000e-03     1     4     8     8
-3.4120000000e-07     1     4     8     9
-2.2519000000e-05     1     4     8    10
 5.3685000000e-06     1     4     8    11
 2.8878860000e-04     1     4     8    12
 4.4360763000e-03     1     4     8    13
 3.7133700000e-05     1     4     9     1
 1.6843700000e-05     1     4     9     2
-4.5732000000e-06     1     4     9     3
 1.9605355000e-03     1     4     9     5
 9.9616800000e-05     1     4     9     6
-9.5330000000e-07     1     4     9     7
-6.4900000000e-08     1     4     9     8
 2.5844200000e-03     1     4     9     9
 7.7098000000e-06     1     4     9    10
 2.3592230000e-04     1     4     9    11
 4.4289084000e-03     1     4     9    12
-3.0642190000e-04     1     4     9    13
 1.0927323700e-02     1     4    10     1
 4.9297877000e-03     1     4    10     2
-8.0276240000e-04     1     4    10     3
-6.3740000000e-07     1     4    10     5
-7.4350000000e-07     1     4    10     6
-7.5633390000e-04     1     4    10     7
 1.9154000000e-06     1     4    10     8
-1.7771000000e-06     1     4    10     9
-3.6928764000e-03     1     4    10    10
-1.1802709000e-03     1     4    10    11
 6.5915800000e-05     1     4    10    12
 7.3380000000e-06     1     4    10    13
 1.6536352500e-02     1     4    11     1
 1.1642027000e-03     1     4    11     2
-5.1213090000e-04     1     4    11     3
-4.6230300000e-05     1     4    11     5
-1.8226000000e-06     1     4    11     6
 5.5690428000e-03     1     4    11     7
-7.0127000000e-06     1     4    11     8
-3.8159680000e-04     1     4    11     9
 5.3394034000e-03     1     4    11    10
 1.4657123000e-03     1     4    11    11
-3.0687000000e-05     1     4    11    12
 3.0947000000e-06     1     4    11    13
-9.3480620000e-04     1     4    12     1
-6.3518800000e-05     1     4    12     2
 3.1091900000e-05     1     4    12     3
-8.3765780000e-04     1     4    12     5
 1.1978500000e-05     1     4    12     6
-3.0357330000e-04     1     4    12     7
-4.3833310000e-04     1     4    12     8
-6.7137243000e-03     1     4    12     9
-2.9742110000e-04     1     4    12    10
-2.9691500000e-05     1     4    12    11
 9.7384550000e-04     1     4    12    12
 5.2201000000e-06     1     4    12    13
 1.7369500000e-05     1     4    13     1
-3.3064000000e-06     1     4    13     2
-4.1575000000e-06     1     4    13     3
 1.5068600000e-05     1     4    13     5
 8.3999400000e-04     1     4    13     6
 4.2427000000e-06     1     4    13     7
-6.7228040000e-03     1     4    13     8
 4.6458700000e-04     1     4    13     9
 4.5113000000e-06     1     4    13    10
 4.2241000000e-06     1     4    13    11
 5.4272000000e-06     1     4    13    12
 9.7269930000e-04     1     4    13    13
-9.5347000000e-06     1     5     2     1
-1.0918400000e-05     1     5     2     2
 1.2164000000e-06     1     5     2     3
-1.7210000000e-07     1     5     2     4
-1.6460000000e-07     1     5     2     6
-5.7771000000e-06     1     5     2     7
-6.3627260000e-04     1     5     2     8
-1.2519237500e-02     1     5     2     9
 4.5369000000e-06     1     5     2    10
-8.2339000000e-06     1     5     2    11
-1.7587020000e-04     1     5     2    12
 3.3475000000e-06     1     5     2    13
-1.2098000000e-06     1     5     3     1
-3.9628000000e-06     1     5     3     2
 4.2336000000e-06     1     5     3     3
-9.0200000000e-08     1     5     3     4
-1.0600000000e-08     1     5     3     6
 8.6765000000e-06     1     5     3     7
 1.3653049000e-03     1     5     3     8
 2.6841114400e-02     1     5     3     9
-1.4888200000e-05     1     5     3    10
 8.5619200000e-04     1     5     3    11
 1.5421669100e-02     1     5     3    12
-2.8085040000e-04     1     5     3    13
-1.5843000000e-06     1     5     4     1
-3.6017000000e-06     1     5     4     2
 6.2490000000e-07     1     5     4     3
 3.9925000000e-06     1     5     4     4
 3.1600000000e-08     1     5     4     6
 1.0674200000e-05     1     5     4     7
 5.6138120000e-04     1     5     4     8
 1.1059099600e-02     1     5     4     9
-2.5603000000e-06     1     5     4    10
-1.5615278000e-03     1     5     4    11
-2.8213946800e-02     1     5     4    12
 5.1356350000e-04     1     5     4    13
-9.3318354300e-02     1     5     5     1
-8.8044559900e-02     1     5     5     2
 5.6854697200e-02     1     5     5     3
 9.8779610000e-04     1     5     5     4
-8.9729000000e-06     1     5     5     6
 1.0375415600e-02     1     5     5     7
 8.9306000000e-06     1     5     5     8
-1.6907900000e-05     1     5     5     9
-1.4580475500e-02     1     5     5    10
 2.0256646100e-02     1     5     5    11
 2.4604000000e-04     1     5     5    12
 2.0488573000e-03     1     5     5    13
 3.1870000000e-07     1     5     6     1
 9.9000000000e-08     1     5     6     2
-9.3000000000e-08     1     5     6     3
-4.4800000000e-08     1     5     6     4
 4.0851000000e-06     1     5     6     6
 4.4100000000e-08     1     5     6     7
 7.9500000000e-06     1     5     6     8
-1.3685600000e-05     1     5     6     9
 1.8440000000e-07     1     5     6    10
-2.3114260000e-04     1     5     6    11
-1.7262059000e-03     1     5     6    12
-7.1877140000e-04     1     5     6    13
 2.7654900000e-05     1     5     7     1
 1.4611700000e-05     1     5     7     2
-4.4286000000e-06     1     5     7     3
 7.2690000000e-07     1     5     7     4
-4.3700000000e-08     1     5     7     6
 6.5760000000e-07     1     5     7     7
 3.8155700000e-05     1     5     7     8
 7.4980220000e-04     1     5     7     9
 7.3147000000e-06     1     5     7    10
-3.6847300000e-04     1     5     7    11
-6.7877919000e-03     1     5     7    12
 1.2365090000e-04     1     5     7    13
 3.4383359000e-03     1     5     8     1
 1.6580594000e-03     1     5     8     2
-4.8638180000e-04     1     5     8     3
-9.9404000000e-05     1     5     8     4
 1.6183000000e-06     1     5     8     6
-2.6763940000e-04     1     5     8     7
 1.9641000000e-06     1     5     8     8
 3.4480000000e-07     1     5     8     9
 9.9507430000e-04     1     5     8    10
-2.7181210000e-04     1     5     8    11
-3.5618760000e-04     1     5     8    12
-1.6770800000e-04     1     5     8    13
 6.7642049800e-02     1     5     9     1
 3.2623900700e-02     1     5     9     2
-9.5770506000e-03     1     5     9     3
-1.9605355000e-03     1     5     9     4
 3.2248000000e-06     1     5     9     6
-5.2720656000e-03     1     5     9     7
-9.8505000000e-06     1     5     9     8
 9.7570000000e-06     1     5     9     9
 1.9573841500e-02     1     5     9    10
-4.4480140000e-03     1     5     9    11
-2.1327400000e-05     1     5     9    12
-4.4641810000e-04     1     5     9    13
-3.2599600000e-05     1     5    10     1
-1.5818800000e-05     1     5    10     2
 3.3515000000e-06     1     5    10     3
 6.3740000000e-07     1     5    10     4
 5.3200000000e-08     1     5    10     6
 1.9856000000e-06     1     5    10     7
 4.5515700000e-05     1     5    10     8
 8.9986410000e-04     1     5    10     9
-5.8800000000e-07     1     5    10    10
-1.1012130000e-04     1     5    10    11
-2.0949872000e-03     1     5    10    12
 3.8283300000e-05     1     5    10    13
 1.0197583000e-03     1     5    11     1
 1.3544730000e-04     1     5    11     2
-6.0574800000e-05     1     5    11     3
 4.6230300000e-05     1     5    11     4
-3.6400000000e-08     1     5    11     6
 1.9100580000e-04     1     5    11     7
 1.4854900000e-04     1     5    11     8
 2.1916740000e-03     1     5    11     9
 2.2006150000e-04     1     5    11    10
-4.1738200000e-05     1     5    11    11
 2.5084723000e-03     1     5    11    12
-3.1821500000e-05     1     5    11    13
 1.8411417000e-02     1     5    12     1
 2.4750855000e-03     1     5    12     2
-1.1063107000e-03     1     5    12     3
 8.3765780000e-04     1     5    12     4
-1.8340000000e-07     1     5    12     6
 3.3290829000e-03     1     5    12     7
 2.7479700000e-04     1     5    12     8
 5.3074500000e-05     1     5    12     9
 3.9401874000e-03     1     5    12    10
-3.1717919000e-03     1     5    12    11
 7.2824000000e-05     1     5    12    12
 5.6828200000e-05     1     5    12    13
-3.3561790000e-04     1     5    13     1
-4.5324000000e-05     1     5    13     2
 2.0129300000e-05     1     5    13     3
-1.5068600000e-05     1     5    13     4