&FCI NORB= 13,NELEC=  2,MS2=0,
 ORBSYM=1,1,1,1,1,1,1,1,1,1,1,1,1
 ISYM=1,
&END
-7.7404816700e-02     1     1     2     2
 3.2911183600e-02     1     1     2     3
 4.9172090000e-04     1     1     2     4
-8.0758000000e-06     1     1     2     5
 3.2280000000e-07     1     1     2     6
-1.1740171000e-03     1     1     2     7
 1.6796844000e-03     1     1     2     8
 2.1588000000e-06     1     1     2     9
 5.7402000000e-06     1     1     2    10
-6.9573770000e-04     1     1     2    11
 3.9963100000e-05     1     1     2    12
 4.3210200000e-05     1     1     2    13
 3.2911183600e-02     1     1     3     2
 6.4267472100e-02     1     1     3     3
-3.5713940000e-04     1     1     3     4
 6.3532000000e-06     1     1     3     5
-6.2410000000e-07     1     1     3     6
-7.9999547300e-02     1     1     3     7
 1.5017994000e-02     1     1     3     8
 1.1518700000e-05     1     1     3     9
 2.2614100000e-05     1     1     3    10
-3.2029840000e-04     1     1     3    11
 1.9525700000e-05     1     1     3    12
 2.1613100000e-05     1     1     3    13
 4.9172090000e-04     1     1     4     2
-3.5713940000e-04     1     1     4     3
 8.5727999600e-02     1     1     4     4
 9.0372300000e-05     1     1     4     5
-3.4992000000e-06     1     1     4     6
-1.3433142300e-02     1     1     4     7
-7.1484674500e-02     1     1     4     8
 1.9664490000e-04     1     1     4     9
 8.4433320000e-04     1     1     4    10
-2.9064864000e-03     1     1     4    11
 2.1358900000e-04     1     1     4    12
 1.7981180000e-04     1     1     4    13
-8.0758000000e-06     1     1     5     2
 6.3532000000e-06     1     1     5     3
 9.0372300000e-05     1     1     5     4
 9.3364640700e-02     1     1     5     5
-6.5100000000e-08     1     1     5     6
 1.9482240000e-04     1     1     5     7
 9.2043820000e-04     1     1     5     8
 1.3344073800e-02     1     1     5     9
 6.8109019500e-02     1     1     5    10
 1.9532710000e-04     1     1     5    11
 2.8396085000e-03     1     1     5    12
-4.3274190000e-04     1     1     5    13
 3.2280000000e-07     1     1     6     2
-6.2410000000e-07     1     1     6     3
-3.4992000000e-06     1     1     6     4
-6.5100000000e-08     1     1     6     5
 9.3364375800e-02     1     1     6     6
-1.1815200000e-05     1     1     6     7
-2.9962600000e-05     1     1     6     8
-6.8115681000e-02     1     1     6     9
 1.3345047600e-02     1     1     6    10
-2.5257210000e-04     1     1     6    11
-4.0580160000e-04     1     1     6    12
-2.8273380000e-03     1     1     6    13
-1.1740171000e-03     1     1     7     2
-7.9999547300e-02     1     1     7     3
-1.3433142300e-02     1     1     7     4
 1.9482240000e-04     1     1     7     5
-1.1815200000e-05     1     1     7     6
 1.3364283690e-01     1     1     7     7
-3.3074716000e-03     1     1     7     8
-4.8793000000e-06     1     1     7     9
-1.6427100000e-05     1     1     7    10
-9.8566100000e-05     1     1     7    11
 2.0766200000e-05     1     1     7    12
 3.4955200000e-05     1     1     7    13
 1.6796844000e-03     1     1     8     2
 1.5017994000e-02     1     1     8     3
-7.1484674500e-02     1     1     8     4
 9.2043820000e-04     1     1     8     5
-2.9962600000e-05     1     1     8     6
-3.3074716000e-03     1     1     8     7
 1.2525300990e-01     1     1     8     8
-1.4728200000e-05     1     1     8     9
-5.8833700000e-05     1     1     8    10
 2.5942510000e-04     1     1     8    11
-1.4988800000e-05     1     1     8    12
-7.7667000000e-06     1     1     8    13
 2.1588000000e-06     1     1     9     2
 1.1518700000e-05     1     1     9     3
 1.9664490000e-04     1     1     9     4
 1.3344073800e-02     1     1     9     5
-6.8115681000e-02     1     1     9     6
-4.8793000000e-06     1     1     9     7
-1.4728200000e-05     1     1     9     8
 1.4483429740e-01     1     1     9     9
 6.6770000000e-07     1     1     9    10
 1.4490240000e-04     1     1     9    11
 5.0126910000e-04     1     1     9    12
 1.4271281000e-03     1     1     9    13
 5.7402000000e-06     1     1    10     2
 2.2614100000e-05     1     1    10     3
 8.4433320000e-04     1     1    10     4
 6.8109019500e-02     1     1    10     5
 1.3345047600e-02     1     1    10     6
-1.6427100000e-05     1     1    10     7
-5.8833700000e-05     1     1    10     8
 6.6770000000e-07     1     1    10     9
 1.4484466800e-01     1     1    10    10
 5.0366100000e-05     1     1    10    11
 1.4383927000e-03     1     1    10    12
-5.1153210000e-04     1     1    10    13
-6.9573770000e-04     1     1    11     2
-3.2029840000e-04     1     1    11     3
-2.9064864000e-03     1     1    11     4
 1.9532710000e-04     1     1    11     5
-2.5257210000e-04     1     1    11     6
-9.8566100000e-05     1     1    11     7
 2.5942510000e-04     1     1    11     8
 1.4490240000e-04     1     1    11     9
 5.0366100000e-05     1     1    11    10
 1.2534166770e-01     1     1    11    11
 4.4482800000e-05     1     1    11    12
 4.5786300000e-05     1     1    11    13
 3.9963100000e-05     1     1    12     2
 1.9525700000e-05     1     1    12     3
 2.1358900000e-04     1     1    12     4
 2.8396085000e-03     1     1    12     5
-4.0580160000e-04     1     1    12     6
 2.0766200000e-05     1     1    12     7
-1.4988800000e-05     1     1    12     8
 5.0126910000e-04     1     1    12     9
 1.4383927000e-03     1     1    12    10
 4.4482800000e-05     1     1    12    11
 1.2683847560e-01     1     1    12    12
-6.4726000000e-06     1     1    12    13
 4.3210200000e-05     1     1    13     2
 2.1613100000e-05     1     1    13     3
 1.7981180000e-04     1     1    13     4
-4.3274190000e-04     1     1    13     5
-2.8273380000e-03     1     1    13     6
 3.4955200000e-05     1     1    13     7
-7.7667000000e-06     1     1    13     8
 1.4271281000e-03     1     1    13     9
-5.1153210000e-04     1     1    13    10
 4.5786300000e-05     1     1    13    11
-6.4726000000e-06     1     1    13    12
 1.2682990090e-01     1     1    13    13
 7.7404816700e-02     1     2     2     1
-1.9279512300e-02     1     2     2     3
-2.7844020000e-03     1     2     2     4
 4.6130400000e-05     1     2     2     5
-1.9387000000e-06     1     2     2     6
-6.3361310000e-04     1     2     2     7
-1.2610583000e-03     1     2     2     8
-2.8280000000e-06     1     2     2     9
-5.5980000000e-06     1     2     2    10
 1.7495375000e-03     1     2     2    11
-1.0042970000e-04     1     2     2    12
-1.0831450000e-04     1     2     2    13
-3.2911183600e-02     1     2     3     1
-6.3699259900e-02     1     2     3     3
 1.5388562000e-03     1     2     3     4
-2.5051400000e-05     1     2     3     5
 1.2365000000e-06     1     2     3     6
 4.5527438500e-02     1     2     3     7
-6.1055316000e-03     1     2     3     8
-2.9417000000e-06     1     2     3     9
-3.9507000000e-06     1     2     3    10
-1.3468683000e-03     1     2     3    11
 7.6777700000e-05     1     2     3    12
 8.2515600000e-05     1     2     3    13
-4.9172090000e-04     1     2     4     1
 1.8673831000e-03     1     2     4     3
-8.4359379400e-02     1     2     4     4
-5.0349400000e-05     1     2     4     5
 1.9485000000e-06     1     2     4     6
 7.6060570000e-03     1     2     4     7
 4.0836769600e-02     1     2     4     8
-1.0720150000e-04     1     2     4     9
-4.6748810000e-04     1     2     4    10
-3.6560910000e-04     1     2     4    11
 2.3594100000e-05     1     2     4    12
 2.1644000000e-05     1     2     4    13
 8.0758000000e-06     1     2     5     1
-3.0578200000e-05     1     2     5     3
-5.0959300000e-05     1     2     5     4
-8.7232567100e-02     1     2     5     5
-3.0000000000e-10     1     2     5     6
-1.1019040000e-04     1     2     5     7
-5.3009640000e-04     1     2     5     8
-7.4625153000e-03     1     2     5     9
-3.8090565700e-02     1     2     5    10
 1.1376300000e-05     1     2     5    11
 1.7454160000e-04     1     2     5    12
-2.3410200000e-05     1     2     5    13
-3.2280000000e-07     1     2     6     1
 1.4427000000e-06     1     2     6     3
 2.0281000000e-06     1     2     6     4
 4.5200000000e-08     1     2     6     5
-8.7232287100e-02     1     2     6     6
 6.6384000000e-06     1     2     6     7
 1.7371900000e-05     1     2     6     8
 3.8093806100e-02     1     2     6     9
-7.4634527000e-03     1     2     6    10
 1.4476300000e-05     1     2     6    11
-3.4518900000e-05     1     2     6    12
-1.8129460000e-04     1     2     6    13
 1.1740171000e-03     1     2     7     1
 3.9149775400e-02     1     2     7     3
 5.7287805000e-03     1     2     7     4
-8.2212000000e-05     1     2     7     5
 5.0874000000e-06     1     2     7     6
-1.0517814330e-01     1     2     7     7
 3.0261167000e-03     1     2     7     8
 4.1103000000e-06     1     2     7     9
 1.3566200000e-05     1     2     7    10
-3.2922880000e-04     1     2     7    11
 9.4352000000e-06     1     2     7    12
 2.6459000000e-06     1     2     7    13
-1.6796844000e-03     1     2     8     1
-5.1193398000e-03     1     2     8     3
 3.1204604700e-02     1     2     8     4
-3.9949130000e-04     1     2     8     5
 1.2805900000e-05     1     2     8     6
 3.2866903000e-03     1     2     8     7
-1.0171373610e-01     1     2     8     8
 9.8336000000e-06     1     2     8     9
 3.8295400000e-05     1     2     8    10
-4.0029600000e-04     1     2     8    11
 2.2456100000e-05     1     2     8    12
 2.0089000000e-05     1     2     8    13
-2.1588000000e-06     1     2     9     1
-2.3620000000e-06     1     2     9     3
-8.7642800000e-05     1     2     9     4
-6.0081020000e-03     1     2     9     5
 3.0671339700e-02     1     2     9     6
 4.3934000000e-06     1     2     9     7
 1.0082200000e-05     1     2     9     8
-1.1220536300e-01     1     2     9     9
-4.8550000000e-07     1     2     9    10
-1.2501790000e-04     1     2     9    11
-4.5394330000e-04     1     2     9    12
-1.2883254000e-03     1     2     9    13
-5.7402000000e-06     1     2    10     1
-2.7231000000e-06     1     2    10     3
-3.8138350000e-04     1     2    10     4
-3.0668756200e-02     1     2    10     5
-6.0088927000e-03     1     2    10     6
 1.4730600000e-05     1     2    10     7
 3.8688800000e-05     1     2    10     8
-5.9080000000e-07     1     2    10     9
-1.1221077170e-01     1     2    10    10
-4.8943300000e-05     1     2    10    11
-1.2956085000e-03     1     2    10    12
 4.6098830000e-04     1     2    10    13
 6.9573770000e-04     1     2    11     1
-1.1402766000e-03     1     2    11     3
-3.1626670000e-04     1     2    11     4
 8.7316000000e-06     1     2    11     5
 1.3388200000e-05     1     2    11     6
-2.7166770000e-04     1     2    11     7
-5.9402640000e-04     1     2    11     8
-1.3757920000e-04     1     2    11     9
-5.5081300000e-05     1     2    11    10
-9.9395141300e-02     1     2    11    11
-5.0608600000e-05     1     2    11    12
-5.4308700000e-05     1     2    11    13
-3.9963100000e-05     1     2    12     1
 6.4977100000e-05     1     2    12     3
 2.0223500000e-05     1     2    12     4
 1.1928940000e-04     1     2    12     5
-2.4717700000e-05     1     2    12     6
 6.6864000000e-06     1     2    12     7
 3.4892700000e-05     1     2    12     8
-5.0801800000e-04     1     2    12     9
-1.4479325000e-03     1     2    12    10
-5.0673400000e-05     1     2    12    11
-1.0042092750e-01     1     2    12    12
 8.1077000000e-06     1     2    12    13
-4.3210200000e-05     1     2    13     1
 6.9743900000e-05     1     2    13     3
 1.9335600000e-05     1     2    13     4
-1.5722900000e-05     1     2    13     5
-1.2484960000e-04     1     2    13     6
-1.9280000000e-07     1     2    13     7
 3.2713400000e-05     1     2    13     8
-1.4405300000e-03     1     2    13     9
 5.1515480000e-04     1     2    13    10
-5.4603900000e-05     1     2    13    11
 8.1681000000e-06     1     2    13    12
-1.0041692460e-01     1     2    13    13
-3.2911183600e-02     1     3     2     1
 1.9279512300e-02     1     3     2     2
-3.2852690000e-04     1     3     2     4
 5.5268000000e-06     1     3     2     5
-2.0620000000e-07     1     3     2     6
 6.3776631000e-03     1     3     2     7
-9.8619180000e-04     1     3     2     8
-5.7970000000e-07     1     3     2     9
-1.2276000000e-06     1     3     2    10
-2.0659170000e-04     1     3     2    11
 1.1800600000e-05     1     3     2    12
 1.2771700000e-05     1     3     2    13
-6.4267472100e-02     1     3     3     1
 6.3699259900e-02     1     3     3     2
-1.3395558000e-03     1     3     3     4
 2.1704800000e-05     1     3     3     5
-7.4290000000e-07     1     3     3     6
 4.1841692200e-02     1     3     3     7
-8.7400918000e-03     1     3     3     8
-7.9235000000e-06     1     3     3     9
-1.5582200000e-05     1     3     3    10
 1.0424887000e-03     1     3     3    11
-5.7932600000e-05     1     3     3    12
-6.0819500000e-05     1     3     3    13
 3.5713940000e-04     1     3     4     1
-1.8673831000e-03     1     3     4     2
-6.4448952800e-02     1     3     4     4
-1.4937400000e-05     1     3     4     5
 5.1180000000e-07     1     3     4     6
 7.4503369000e-03     1     3     4     7
 4.2318390500e-02     1     3     4     8
-1.2892280000e-04     1     3     4     9
-5.5478480000e-04     1     3     4    10
 1.1439301000e-03     1     3     4    11
-8.8382000000e-05     1     3     4    12
-6.8415600000e-05     1     3     4    13
-6.3532000000e-06     1     3     5     1
 3.0578200000e-05     1     3     5     2
-1.5251000000e-05     1     3     5     4
-6.6596051200e-02     1     3     5     5
 1.0800000000e-08     1     3     5     6
-1.0550140000e-04     1     3     5     7
-5.3235620000e-04     1     3     5     8
-8.5532190000e-03     1     3     5     9
-4.3657032400e-02     1     3     5    10
-9.4974000000e-05     1     3     5    11
-1.4581372000e-03     1     3     5    12
 2.2249360000e-04     1     3     5    13
 6.2410000000e-07     1     3     6     1
-1.4427000000e-06     1     3     6     2
 5.7100000000e-07     1     3     6     4
 4.3300000000e-08     1     3     6     5
-6.6595800700e-02     1     3     6     6
 6.6952000000e-06     1     3     6     7
 1.6931900000e-05     1     3     6     8
 4.3660380900e-02     1     3     6     9
-8.5539759000e-03     1     3     6    10
 1.3706190000e-04     1     3     6    11
 2.0583310000e-04     1     3     6    12
 1.4494473000e-03     1     3     6    13
 7.9999547300e-02     1     3     7     1
-3.9149775400e-02     1     3     7     2
 2.6749230000e-03     1     3     7     4
-3.8956600000e-05     1     3     7     5
 2.3673000000e-06     1     3     7     6
-7.0349627400e-02     1     3     7     7
 9.6009080000e-04     1     3     7     8
 1.6264000000e-06     1     3     7     9
 5.2668000000e-06     1     3     7    10
 1.6210200000e-05     1     3     7    11
-6.1239000000e-06     1     3     7    12
-1.1394900000e-05     1     3     7    13
-1.5017994000e-02     1     3     8     1
 5.1193398000e-03     1     3     8     2
 1.3178757900e-02     1     3     8     4
-1.6848710000e-04     1     3     8     5
 5.4008000000e-06     1     3     8     6
 9.6486930000e-04     1     3     8     7
-6.9312333500e-02     1     3     8     8
 4.2209000000e-06     1     3     8     9
 1.6212600000e-05     1     3     8    10
-5.0521940000e-04     1     3     8    11
 2.9436900000e-05     1     3     8    12
 2.7594300000e-05     1     3     8    13
-1.1518700000e-05     1     3     9     1
 2.3620000000e-06     1     3     9     2
-3.5347100000e-05     1     3     9     4
-2.3990629000e-03     1     3     9     5
 1.2252733700e-02     1     3     9     6
 1.6035000000e-06     1     3     9     7
 3.9762000000e-06     1     3     9     8
-7.7004464300e-02     1     3     9     9
 2.4410000000e-07     1     3     9    10
-9.2807500000e-05     1     3     9    11
-3.0736710000e-04     1     3     9    12
-8.7715840000e-04     1     3     9    13
-2.2614100000e-05     1     3    10     1
 2.7231000000e-06     1     3    10     2
-1.5260720000e-04     1     3    10     4
-1.2251318600e-02     1     3    10     5
-2.3993932000e-03     1     3    10     6
 4.9847000000e-06     1     3    10     7
 1.5293300000e-05     1     3    10     8
-7.3610000000e-07     1     3    10     9
-7.7009326600e-02     1     3    10    10
-3.3059000000e-05     1     3    10    11
-8.8494030000e-04     1     3    10    12
 3.1516670000e-04     1     3    10    13
 3.2029840000e-04     1     3    11     1
 1.1402766000e-03     1     3    11     2
 2.5248260000e-04     1     3    11     4
-1.7038700000e-05     1     3    11     5
 2.6115200000e-05     1     3    11     6
-1.5435000000e-05     1     3    11     7
-5.5716510000e-04     1     3    11     8
-9.1236600000e-05     1     3    11     9
-3.2727900000e-05     1     3    11    10
-5.9545001300e-02     1     3    11    11
-1.4935400000e-05     1     3    11    12
-1.5140100000e-05     1     3    11    13
-1.9525700000e-05     1     3    12     1
-6.4977100000e-05     1     3    12     2
-1.9327600000e-05     1     3    12     4
-2.4320990000e-04     1     3    12     5
 3.3275200000e-05     1     3    12     6
-3.1572000000e-06     1     3    12     7
 3.2998100000e-05     1     3    12     8
-3.0452170000e-04     1     3    12     9
-8.7615950000e-04     1     3    12    10
-1.5273400000e-05     1     3    12    11
-6.0255378000e-02     1     3    12    12
 2.2977000000e-06     1     3    12    13
-2.1613100000e-05     1     3    13     1
-6.9743900000e-05     1     3    13     2
-1.6067900000e-05     1     3    13     4
 3.7489100000e-05     1     3    13     5
 2.4109790000e-04     1     3    13     6
-7.1770000000e-06     1     3    13     7
 3.1702100000e-05     1     3    13     8
-8.6872120000e-04     1     3    13     9
 3.1201290000e-04     1     3    13    10
-1.5766600000e-05     1     3    13    11
 2.3714000000e-06     1     3    13    12
-6.0251126100e-02     1     3    13    13
-4.9172090000e-04     1     4     2     1
 2.7844020000e-03     1     4     2     2
 3.2852690000e-04     1     4     2     3
 6.0990000000e-07     1     4     2     5
-7.9600000000e-08     1     4     2     6
 1.8772765000e-03     1     4     2     7
 9.6321649000e-03     1     4     2     8
-1.9558700000e-05     1     4     2     9
-8.6104600000e-05     1     4     2    10
-4.9342400000e-05     1     4     2    11
 3.3706000000e-06     1     4     2    12
 2.3084000000e-06     1     4     2    13
 3.5713940000e-04     1     4     3     1
-1.5388562000e-03     1     4     3     2
 1.3395558000e-03     1     4     3     3
 3.1360000000e-07     1     4     3     5
-5.9200000000e-08     1     4     3     6
 4.7754139000e-03     1     4     3     7
 2.9139632600e-02     1     4     3     8
-9.3575700000e-05     1     4     3     9
-4.0217760000e-04     1     4     3    10
 8.9144750000e-04     1     4     3    11
-6.9054400000e-05     1     4     3    12
-5.2347700000e-05     1     4     3    13
-8.5727999600e-02     1     4     4     1
 8.4359379400e-02     1     4     4     2
 6.4448952800e-02     1     4     4     3
 3.4141700000e-05     1     4     4     5
-1.4566000000e-06     1     4     4     6
-1.7757091700e-02     1     4     4     7
 2.6028546000e-03     1     4     4     8
 2.3314800000e-05     1     4     4     9
-1.9338700000e-05     1     4     4    10
-3.5562875200e-02     1     4     4    11
 3.1131338000e-03     1     4     4    12
 2.1279038000e-03     1     4     4    13
-9.0372300000e-05     1     4     5     1
 5.0959300000e-05     1     4     5     2
 1.5251000000e-05     1     4     5     3
 1.9703400000e-03     1     4     5     5
-2.0518300000e-05     1     4     5     7
-8.5400000000e-06     1     4     5     8
-1.2554660000e-04     1     4     5     9
-6.6659940000e-04     1     4     5    10
 2.5116165000e-03     1     4     5    11
 3.2551857400e-02     1     4     5    12
-4.9512992000e-03     1     4     5    13
 3.4992000000e-06     1     4     6     1
-2.0281000000e-06     1     4     6     2
-5.7100000000e-07     1     4     6     3
 3.6000000000e-09     1     4     6     5
 1.9702865000e-03     1     4     6     6
 7.7060000000e-07     1     4     6     7
-3.1690000000e-07     1     4     6     8
 6.6046800000e-04     1     4     6     9
-1.3175610000e-04     1     4     6    10
-2.3518021000e-03     1     4     6    11
-4.8173705000e-03     1     4     6    12
-3.2551185900e-02     1     4     6    13
 1.3433142300e-02     1     4     7     1
-5.7287805000e-03     1     4     7     2
-2.6749230000e-03     1     4     7     3
 6.5190000000e-07     1     4     7     5
-9.2400000000e-08     1     4     7     6
 5.4130405000e-03     1     4     7     7
-2.7505298000e-03     1     4     7     8
 1.7726400000e-05     1     4     7     9
 8.1787900000e-05     1     4     7    10
 1.5445354000e-03     1     4     7    11
-1.2076900000e-04     1     4     7    12
-9.9058600000e-05     1     4     7    13
 7.1484674500e-02     1     4     8     1
-3.1204604700e-02     1     4     8     2
-1.3178757900e-02     1     4     8     3
-9.9900000000e-08     1     4     8     5
-4.5000000000e-09     1     4     8     6
 1.9234011300e-02     1     4     8     7
-7.8155540000e-04     1     4     8     8
-9.8063000000e-06     1     4     8     9
-1.2871700000e-05     1     4     8    10
 8.3519833000e-03     1     4     8    11
-6.6824740000e-04     1     4     8    12
-5.1832790000e-04     1     4     8    13
-1.9664490000e-04     1     4     9     1
 8.7642800000e-05     1     4     9     2
 3.5347100000e-05     1     4     9     3
-2.1175000000e-06     1     4     9     5
 1.1698700000e-05     1     4     9     6
-4.5544500000e-05     1     4     9     7
 1.2976800000e-05     1     4     9     8
 2.4094246000e-03     1     4     9     9
-9.4310000000e-07     1     4     9    10
 3.8812090000e-04     1     4     9    11
 1.6404711000e-03     1     4     9    12
 4.6236856000e-03     1     4     9    13
-8.4433320000e-04     1     4    10     1
 3.8138350000e-04     1     4    10     2
 1.5260720000e-04     1     4    10     3
-1.1903700000e-05     1     4    10     5
-2.3176000000e-06     1     4    10     6
-1.9994880000e-04     1     4    10     7
 3.6113300000e-05     1     4    10     8
 1.0750000000e-07     1     4    10     9
 2.4108277000e-03     1     4    10    10
 2.2194460000e-04     1     4    10    11
 4.6350675000e-03     1     4    10    12
-1.6547315000e-03     1     4    10    13
 2.9064864000e-03     1     4    11     1
 3.1626670000e-04     1     4    11     2
-2.5248260000e-04     1     4    11     3
 4.4333500000e-05     1     4    11     5
-6.6205500000e-05     1     4    11     6
-4.2844350000e-04     1     4    11     7
-5.0473633000e-03     1     4    11     8
-5.9638160000e-04     1     4    11     9
-3.5175920000e-04     1     4    11    10
 2.1444991000e-03     1     4    11    11
-2.9599700000e-05     1     4    11    12
-1.7896500000e-05     1     4    11    13
-2.1358900000e-04     1     4    12     1
-2.0223500000e-05     1     4    12     2
 1.9327600000e-05     1     4    12     3
 9.5165080000e-04     1     4    12     5
-1.3967840000e-04     1     4    12     6
 2.4922700000e-05     1     4    12     7
 3.5248610000e-04     1     4    12     8
-2.3967385000e-03     1     4    12     9
-6.7651101000e-03     1     4    12    10
-1.9370200000e-05     1     4    12    11
 1.8741154000e-03     1     4    12    12
 5.5530000000e-07     1     4    12    13
-1.7981180000e-04     1     4    13     1
-1.9335600000e-05     1     4    13     2
 1.6067900000e-05     1     4    13     3
-1.4046440000e-04     1     4    13     5
-9.5028010000e-04     1     4    13     6
 2.2785500000e-05     1     4    13     7
 3.0359010000e-04     1     4    13     8
-6.7550310000e-03     1     4    13     9
 2.4181034000e-03     1     4    13    10
-2.7785100000e-05     1     4    13    11
 3.3504000000e-06     1     4    13    12
 1.8743265000e-03     1     4    13    13
 8.0758000000e-06     1     5     2     1
-4.6130400000e-05     1     5     2     2
-5.5268000000e-06     1     5     2     3
-6.0990000000e-07     1     5     2     4
-4.5500000000e-08     1     5     2     6
-2.7978400000e-05     1     5     2     7
-1.3060510000e-04     1     5     2     8
-1.4544133000e-03     1     5     2     9
-7.4218095000e-03     1     5     2    10
 2.6447000000e-06     1     5     2    11
 5.5252200000e-05     1     5     2    12
-7.6873000000e-06     1     5     2    13
-6.3532000000e-06     1     5     3     1
 2.5051400000e-05     1     5     3     2
-2.1704800000e-05     1     5     3     3
-3.1360000000e-07     1     5     3     4
-3.2500000000e-08     1     5     3     6
-6.6544800000e-05     1     5     3     7
-3.6386910000e-04     1     5     3     8
-6.1541561000e-03     1     5     3     9
-3.1405713800e-02     1     5     3    10
-7.7935300000e-05     1     5     3    11
-1.2149273000e-03     1     5     3    12
 1.8500450000e-04     1     5     3    13
-9.0372300000e-05     1     5     4     1
 5.0349400000e-05     1     5     4     2
 1.4937400000e-05     1     5     4     3
-3.4141700000e-05     1     5     4     4
-3.6000000000e-09     1     5     4     6
-2.1170200000e-05     1     5     4     7
-8.4401000000e-06     1     5     4     8
-1.2342910000e-04     1     5     4     9
-6.5469570000e-04     1     5     4    10
 2.4672830000e-03     1     5     4    11
 3.1600206600e-02     1     5     4    12
-4.8108348000e-03     1     5     4    13
-9.3364640700e-02     1     5     5     1
 8.7232567100e-02     1     5     5     2
 6.6596051200e-02     1     5     5     3
-1.9703400000e-03     1     5     5     4
-1.3945000000e-06     1     5     5     6
-1.9331349200e-02     1     5     5     7
 2.3118091000e-03     1     5     5     8
-1.6712600000e-05     1     5     5     9
 2.0394900000e-05     1     5     5    10
 1.9122866000e-02     1     5     5    11
-8.6232880000e-04     1     5     5    12
-3.0147542000e-03     1     5     5    13
 6.5100000000e-08     1     5     6     1
-4.5200000000e-08     1     5     6     2
-4.3300000000e-08     1     5     6     3
-3.6000000000e-09     1     5     6     4
-3.2371800000e-05     1     5     6     6
 1.6300000000e-08     1     5     6     7
 5.6530000000e-07     1     5     6     8
-1.4258300000e-05     1     5     6     9
-5.3359000000e-06     1     5     6    10
 1.6286100000e-05     1     5     6    11
 6.0904740000e-04     1     5     6    12
 5.5900230000e-04     1     5     6    13
-1.9482240000e-04     1     5     7     1
 8.2212000000e-05     1     5     7     2
 3.8956600000e-05     1     5     7     3
-6.5190000000e-07     1     5     7     4
-3.9600000000e-08     1     5     7     6
-8.2829000000e-05     1     5     7     7
 2.9663000000e-05     1     5     7     8
 1.1934325000e-03     1     5     7     9
 6.0902618000e-03     1     5     7    10
-8.5031700000e-05     1     5     7    11
-1.2674376000e-03     1     5     7    12
 1.9026120000e-04     1     5     7    13
-9.2043820000e-04     1     5     8     1
 3.9949130000e-04     1     5     8     2
 1.6848710000e-04     1     5     8     3
 9.9900000000e-08     1     5     8     4
 5.6000000000e-09     1     5     8     6
-2.4760070000e-04     1     5     8     7
 1.4221000000e-06     1     5     8     8
-1.3623770000e-04     1     5     8     9
-6.9114590000e-04     1     5     8    10
-5.1527890000e-04     1     5     8    11
-7.7572042000e-03     1     5     8    12
 1.1689922000e-03     1     5     8    13
-1.3344073800e-02     1     5     9     1
 6.0081020000e-03     1     5     9     2
 2.3990629000e-03     1     5     9     3
 2.1175000000e-06     1     5     9     4
-3.2680000000e-07     1     5     9     6
-3.1570145000e-03     1     5     9     7
 5.6842480000e-04     1     5     9     8
-3.9107000000e-05     1     5     9     9
 6.2939000000e-06     1     5     9    10
 6.6156170000e-04     1     5     9    11
-1.1292880000e-04     1     5     9    12
-1.9955150000e-04     1     5     9    13
-6.8109019500e-02     1     5    10     1
 3.0668756200e-02     1     5    10     2
 1.2251318600e-02     1     5    10     3
 1.1903700000e-05     1     5    10     4
 1.0210000000e-07     1     5    10     6
-1.6114239000e-02     1     5    10     7
 2.8966433000e-03     1     5    10     8
-1.9937000000e-06     1     5    10     9
-3.3875100000e-05     1     5    10    10
 3.3812219000e-03     1     5    10    11
-5.3920400000e-05     1     5    10    12
-5.6449780000e-04     1     5    10    13
-1.9532710000e-04     1     5    11     1
-8.7316000000e-06     1     5    11     2
 1.7038700000e-05     1     5    11     3
-4.4333500000e-05     1     5    11     4
 1.1465000000e-06     1     5    11     6
 2.8280700000e-05     1     5    11     7
 3.4529090000e-04     1     5    11     8
-6.2799150000e-04     1     5    11     9
-3.2285904000e-03     1     5    11    10
-3.4879200000e-05     1     5    11    11
-4.0864560000e-04     1     5    11    12
 5.9480600000e-05     1     5    11    13
-2.8396085000e-03     1     5    12     1
-1.1928940000e-04     1     5    12     2
 2.4320990000e-04     1     5    12     3
-9.5165080000e-04     1     5    12     4
 1.6758000000e-06     1     5    12     6
 3.1699140000e-04     1     5    12     7
 4.4560760000e-03     1     5    12     8
 1.3191550000e-04     1     5    12     9
 3.7837400000e-05     1     5    12    10
 3.3797770000e-04     1     5    12    11
-3.3617000000e-05     1     5    12    12
-2.6604100000e-05     1     5    12    13
 4.3274190000e-04     1     5    13     1
 1.5722900000e-05     1     5    13     2
-3.7489100000e-05     1     5    13     3
 1.4046440000e-04     1     5    13     4
 1.6990300000e-05     1     5    13     6