&FCI NORB= 13,NELEC=  2,MS2=0,
 ORBSYM=1,1,1,1,1,1,1,1,1,1,1,1,1
 ISYM=1,
&END
-4.7517224700e-02     1     1     2     2
 4.2051496400e-02     1     1     2     3
 1.7343945000e-02     1     1     2     4
-1.7781650000e-04     1     1     2     5
-9.1537400000e-05     1     1     2     6
 1.0637989300e-02     1     1     2     7
-1.3273000000e-05     1     1     2     8
-5.2689000000e-06     1     1     2     9
-2.6091405000e-03     1     1     2    10
 2.5988151000e-03     1     1     2    11
-2.1900920000e-04     1     1     2    12
 8.4472400000e-05     1     1     2    13
 4.2051496400e-02     1     1     3     2
 7.6205930600e-02     1     1     3     3
-2.9206275000e-03     1     1     3     4
 2.9808800000e-05     1     1     3     5
 1.5929300000e-05     1     1     3     6
 1.1369526000e-03     1     1     3     7
-1.9148710000e-04     1     1     3     8
-1.6900240000e-04     1     1     3     9
-8.2988004700e-02     1     1     3    10
-9.9116837000e-03     1     1     3    11
 8.5769360000e-04     1     1     3    12
-3.7300360000e-04     1     1     3    13
 1.7343945000e-02     1     1     4     2
-2.9206275000e-03     1     1     4     3
 8.8307989600e-02     1     1     4     4
 4.0242800000e-05     1     1     4     5
 2.1016400000e-05     1     1     4     6
-7.0399561800e-02     1     1     4     7
 3.3415720000e-04     1     1     4     8
-7.6249210000e-04     1     1     4     9
-1.0841999400e-02     1     1     4    10
 1.6488785100e-02     1     1     4    11
-1.4146017000e-03     1     1     4    12
 4.6865320000e-04     1     1     4    13
-1.7781650000e-04     1     1     5     2
 2.9808800000e-05     1     1     5     3
 4.0242800000e-05     1     1     5     4
 9.3319667700e-02     1     1     5     5
-2.4820000000e-07     1     1     5     6
 7.2711550000e-04     1     1     5     7
-4.8959720000e-03     1     1     5     8
-6.7551869900e-02     1     1     5     9
 2.6283790000e-04     1     1     5    10
-1.7518800000e-05     1     1     5    11
-5.0508126000e-03     1     1     5    12
-1.7713025600e-02     1     1     5    13
-9.1537400000e-05     1     1     6     2
 1.5929300000e-05     1     1     6     3
 2.1016400000e-05     1     1     6     4
-2.4820000000e-07     1     1     6     5
 9.3317816100e-02     1     1     6     6
 4.1908390000e-04     1     1     6     7
 6.7552301500e-02     1     1     6     8
-4.8927870000e-03     1     1     6     9
-8.7590000000e-05     1     1     6    10
 1.6229456000e-03     1     1     6    11
 1.7665713800e-02     1     1     6    12
-5.0418279000e-03     1     1     6    13
 1.0637989300e-02     1     1     7     2
 1.1369526000e-03     1     1     7     3
-7.0399561800e-02     1     1     7     4
 7.2711550000e-04     1     1     7     5
 4.1908390000e-04     1     1     7     6
 1.2132101700e-01     1     1     7     7
-1.4223200000e-05     1     1     7     8
 1.0865300000e-05     1     1     7     9
-3.6447043000e-03     1     1     7    10
-1.1035551500e-02     1     1     7    11
 9.2746950000e-04     1     1     7    12
-3.7639130000e-04     1     1     7    13
-1.3273000000e-05     1     1     8     2
-1.9148710000e-04     1     1     8     3
 3.3415720000e-04     1     1     8     4
-4.8959720000e-03     1     1     8     5
 6.7552301500e-02     1     1     8     6
-1.4223200000e-05     1     1     8     7
 1.3125765090e-01     1     1     8     8
-1.0217000000e-06     1     1     8     9
-3.5273000000e-06     1     1     8    10
 1.0001948000e-03     1     1     8    11
 1.0373475600e-02     1     1     8    12
-2.1586040000e-03     1     1     8    13
-5.2689000000e-06     1     1     9     2
-1.6900240000e-04     1     1     9     3
-7.6249210000e-04     1     1     9     4
-6.7551869900e-02     1     1     9     5
-4.8927870000e-03     1     1     9     6
 1.0865300000e-05     1     1     9     7
-1.0217000000e-06     1     1     9     8
 1.3126207820e-01     1     1     9     9
-3.1651000000e-06     1     1     9    10
-1.7726000000e-04     1     1     9    11
 2.1779340000e-03     1     1     9    12
 1.0398924300e-02     1     1     9    13
-2.6091405000e-03     1     1    10     2
-8.2988004700e-02     1     1    10     3
-1.0841999400e-02     1     1    10     4
 2.6283790000e-04     1     1    10     5
-8.7590000000e-05     1     1    10     6
-3.6447043000e-03     1     1    10     7
-3.5273000000e-06     1     1    10     8
-3.1651000000e-06     1     1    10     9
 1.3997999670e-01     1     1    10    10
 3.1359349000e-03     1     1    10    11
-3.0685310000e-04     1     1    10    12
 1.1200520000e-04     1     1    10    13
 2.5988151000e-03     1     1    11     2
-9.9116837000e-03     1     1    11     3
 1.6488785100e-02     1     1    11     4
-1.7518800000e-05     1     1    11     5
 1.6229456000e-03     1     1    11     6
-1.1035551500e-02     1     1    11     7
 1.0001948000e-03     1     1    11     8
-1.7726000000e-04     1     1    11     9
 3.1359349000e-03     1     1    11    10
 1.2759213890e-01     1     1    11    11
 4.1552400000e-05     1     1    11    12
-2.6310000000e-06     1     1    11    13
-2.1900920000e-04     1     1    12     2
 8.5769360000e-04     1     1    12     3
-1.4146017000e-03     1     1    12     4
-5.0508126000e-03     1     1    12     5
 1.7665713800e-02     1     1    12     6
 9.2746950000e-04     1     1    12     7
 1.0373475600e-02     1     1    12     8
 2.1779340000e-03     1     1    12     9
-3.0685310000e-04     1     1    12    10
 4.1552400000e-05     1     1    12    11
 1.2915834700e-01     1     1    12    12
 1.7544000000e-06     1     1    12    13
 8.4472400000e-05     1     1    13     2
-3.7300360000e-04     1     1    13     3
 4.6865320000e-04     1     1    13     4
-1.7713025600e-02     1     1    13     5
-5.0418279000e-03     1     1    13     6
-3.7639130000e-04     1     1    13     7
-2.1586040000e-03     1     1    13     8
 1.0398924300e-02     1     1    13     9
 1.1200520000e-04     1     1    13    10
-2.6310000000e-06     1     1    13    11
 1.7544000000e-06     1     1    13    12
 1.2919730710e-01     1     1    13    13
 4.7517224700e-02     1     2     2     1
-1.8757241300e-02     1     2     2     3
-2.4353074200e-02     1     2     2     4
 2.4912070000e-04     1     2     2     5
 1.2812270000e-04     1     2     2     6
-5.6083628000e-03     1     2     2     7
 1.1726400000e-05     1     2     2     8
 8.4920000000e-06     1     2     2     9
 3.5873623000e-03     1     2     2    10
-3.5452707000e-03     1     2     2    11
 3.0651810000e-04     1     2     2    12
-1.2529180000e-04     1     2     2    13
-4.2051496400e-02     1     2     3     1
-7.0496387700e-02     1     2     3     3
 8.6643613000e-03     1     2     3     4
-8.7005300000e-05     1     2     3     5
-4.5143300000e-05     1     2     3     6
 7.5485126000e-03     1     2     3     7
 1.0935350000e-04     1     2     3     8
 1.0787960000e-04     1     2     3     9
 5.0743189600e-02     1     2     3    10
 2.7352221000e-03     1     2     3    11
-2.3392160000e-04     1     2     3    12
 9.5811900000e-05     1     2     3    13
-1.7343945000e-02     1     2     4     1
 1.1575938300e-02     1     2     4     3
-8.1306336100e-02     1     2     4     4
-7.4965600000e-05     1     2     4     5
-3.8765100000e-05     1     2     4     6
 4.9706351800e-02     1     2     4     7
-2.2869480000e-04     1     2     4     8
 4.9303550000e-04     1     2     4     9
 4.2423146000e-03     1     2     4    10
-8.5212300000e-04     1     2     4    11
 7.3254700000e-05     1     2     4    12
-2.4866800000e-05     1     2     4    13
 1.7781650000e-04     1     2     5     1
-1.1703410000e-04     1     2     5     3
-7.5042100000e-05     1     2     5     4
-8.8043545800e-02     1     2     5     5
 4.6410000000e-07     1     2     5     6
-5.2166710000e-04     1     2     5     7
 3.2674547000e-03     1     2     5     8
 4.5079520200e-02     1     2     5     9
-1.4482040000e-04     1     2     5    10
 1.4003000000e-06     1     2     5    11
 7.2565530000e-04     1     2     5    12
 2.5394017000e-03     1     2     5    13
 9.1537400000e-05     1     2     6     1
-6.0525700000e-05     1     2     6     3
-3.8750400000e-05     1     2     6     4
 3.4980000000e-07     1     2     6     5
-8.8042892500e-02     1     2     6     6
-2.9840440000e-04     1     2     6     7
-4.5081282400e-02     1     2     6     8
 3.2649386000e-03     1     2     6     9
 7.3889900000e-05     1     2     6    10
-2.3724000000e-04     1     2     6    11
-2.5376993000e-03     1     2     6    12
 7.2430010000e-04     1     2     6    13
-1.0637989300e-02     1     2     7     1
 7.9005093000e-03     1     2     7     3
 3.5369063200e-02     1     2     7     4
-3.7199010000e-04     1     2     7     5
-2.1305450000e-04     1     2     7     6
-9.4811150700e-02     1     2     7     7
 2.2712500000e-05     1     2     7     8
-9.9780000000e-07     1     2     7     9
 8.4777502000e-03     1     2     7    10
 8.5643005000e-03     1     2     7    11
-7.1765830000e-04     1     2     7    12
 2.9514280000e-04     1     2     7    13
 1.3273000000e-05     1     2     8     1
 8.9589900000e-05     1     2     8     3
-1.6020640000e-04     1     2     8     4
 2.3611998000e-03     1     2     8     5
-3.2579713300e-02     1     2     8     6
 1.9033600000e-05     1     2     8     7
-1.0486540720e-01     1     2     8     8
 7.9860000000e-07     1     2     8     9
-8.6498000000e-06     1     2     8    10
-8.0628210000e-04     1     2     8    11
-8.3175828000e-03     1     2     8    12
 1.7301616000e-03     1     2     8    13
 5.2689000000e-06     1     2     9     1
 8.9654200000e-05     1     2     9     3
 3.5912500000e-04     1     2     9     4
 3.2578426200e-02     1     2     9     5
 2.3594196000e-03     1     2     9     6
-4.3197000000e-06     1     2     9     7
 7.5020000000e-07     1     2     9     8
-1.0486925580e-01     1     2     9     9
-8.3430000000e-07     1     2     9    10
 1.3748150000e-04     1     2     9    11
-1.7456017000e-03     1     2     9    12
-8.3367679000e-03     1     2     9    13
 2.6091405000e-03     1     2    10     1
 4.2118208100e-02     1     2    10     3
 4.8875962000e-03     1     2    10     4
-1.2323640000e-04     1     2    10     5
 4.4444900000e-05     1     2    10     6
 6.9262071000e-03     1     2    10     7
-7.4756000000e-06     1     2    10     8
-2.1353000000e-06     1     2    10     9
-1.1245473290e-01     1     2    10    10
-3.2579875000e-03     1     2    10    11
 3.1231180000e-04     1     2    10    12
-1.1960030000e-04     1     2    10    13
-2.5988151000e-03     1     2    11     1
 2.7887774000e-03     1     2    11     3
-1.1648419000e-03     1     2    11     4
-1.8614000000e-06     1     2    11     5
-2.2296390000e-04     1     2    11     6
 1.0117304500e-02     1     2    11     7
-9.3003890000e-04     1     2    11     8
 1.6078720000e-04     1     2    11     9
-3.6941081000e-03     1     2    11    10
-1.0062731250e-01     1     2    11    11
-8.5236700000e-05     1     2    11    12
 1.8901600000e-05     1     2    11    13
 2.1900920000e-04     1     2    12     1
-2.3904730000e-04     1     2    12     3
 9.6584000000e-05     1     2    12     4
 6.7833390000e-04     1     2    12     5
-2.3714969000e-03     1     2    12     6
-8.5801720000e-04     1     2    12     7
-9.6019962000e-03     1     2    12     8
-2.0159101000e-03     1     2    12     9
 3.5409490000e-04     1     2    12    10
-8.6349400000e-05     1     2    12    11
-1.0220423930e-01     1     2    12    12
-2.2699000000e-06     1     2    12    13
-8.4472400000e-05     1     2    13     1
 9.7326600000e-05     1     2    13     3
-2.7756800000e-05     1     2    13     4
 2.3739968000e-03     1     2    13     5
 6.7659200000e-04     1     2    13     6
 3.5621980000e-04     1     2    13     7
 1.9977340000e-03     1     2    13     8
-9.6263553000e-03     1     2    13     9
-1.3469710000e-04     1     2    13    10
 1.9619900000e-05     1     2    13    11
-2.4396000000e-06     1     2    13    12
-1.0223109560e-01     1     2    13    13
-4.2051496400e-02     1     3     2     1
 1.8757241300e-02     1     3     2     2
-2.9115770000e-03     1     3     2     4
 3.0028800000e-05     1     3     2     5
 1.5382400000e-05     1     3     2     6
-3.5199670000e-04     1     3     2     7
 1.9763600000e-05     1     3     2     8
 1.8225400000e-05     1     3     2     9
 8.6249815000e-03     1     3     2    10
-5.3555300000e-05     1     3     2    11
 5.1257000000e-06     1     3     2    12
-1.5147000000e-06     1     3     2    13
-7.6205930600e-02     1     3     3     1
 7.0496387700e-02     1     3     3     2
 2.6279760000e-03     1     3     3     4
-2.6953200000e-05     1     3     3     5
-1.4113900000e-05     1     3     3     6
-1.3965416500e-02     1     3     3     7
 9.8828400000e-05     1     3     3     8
 7.3045200000e-05     1     3     3     9
 3.9144912600e-02     1     3     3    10
 7.0347669000e-03     1     3     3    11
-6.1723160000e-04     1     3     3    12
 2.7743720000e-04     1     3     3    13
 2.9206275000e-03     1     3     4     1
-1.1575938300e-02     1     3     4     2
-5.4561303300e-02     1     3     4     4
-1.5424000000e-05     1     3     4     5
-8.0690000000e-06     1     3     4     6
 3.4233309500e-02     1     3     4     7
-1.7953460000e-04     1     3     4     8
 4.1580480000e-04     1     3     4     9
 5.9772530000e-03     1     3     4    10
-1.5759944200e-02     1     3     4    11
 1.3440659000e-03     1     3     4    12
-4.3196700000e-04     1     3     4    13
-2.9808800000e-05     1     3     5     1
 1.1703410000e-04     1     3     5     2
-1.5408800000e-05     1     3     5     4
-5.6854656100e-02     1     3     5     5
 1.2120000000e-07     1     3     5     6
-3.4869480000e-04     1     3     5     7
 2.6365328000e-03     1     3     5     8
 3.6378460500e-02     1     3     5     9
-1.4422620000e-04     1     3     5    10
 1.0629200000e-05     1     3     5    11
 4.5305502000e-03     1     3     5    12
 1.5893494600e-02     1     3     5    13
-1.5929300000e-05     1     3     6     1
 6.0525700000e-05     1     3     6     2
-7.9727000000e-06     1     3     6     4
 5.3400000000e-08     1     3     6     5
-5.6854128600e-02     1     3     6     6
-2.0330170000e-04     1     3     6     7
-3.6377685900e-02     1     3     6     8
 2.6352022000e-03     1     3     6     9
 4.9303300000e-05     1     3     6    10
-1.4533783000e-03     1     3     6    11
-1.5847231700e-02     1     3     6    12
 4.5219933000e-03     1     3     6    13
-1.1369526000e-03     1     3     7     1
-7.9005093000e-03     1     3     7     2
 1.0956841700e-02     1     3     7     4
-1.1467170000e-04     1     3     7     5
-6.5525000000e-05     1     3     7     6
-5.5389184700e-02     1     3     7     7
-4.2407000000e-06     1     3     7     8
-1.2664800000e-05     1     3     7     9
-3.2925616000e-03     1     3     7    10
 6.7570057000e-03     1     3     7    11
-5.9112730000e-04     1     3     7    12
 2.5875420000e-04     1     3     7    13
 1.9148710000e-04     1     3     8     1
-8.9589900000e-05     1     3     8     2
-4.8963600000e-05     1     3     8     4
 6.9280610000e-04     1     3     8     5
-9.5635690000e-03     1     3     8     6
 5.7656000000e-06     1     3     8     7
-5.7690802700e-02     1     3     8     8
 3.6590000000e-07     1     3     8     9
 7.6043000000e-06     1     3     8    10
-6.4239580000e-04     1     3     8    11
-6.7415398000e-03     1     3     8    12
 1.4044763000e-03     1     3     8    13
 1.6900240000e-04     1     3     9     1
-8.9654200000e-05     1     3     9     2
 1.0436450000e-04     1     3     9     4
 9.5629263000e-03     1     3     9     5
 6.9226670000e-04     1     3     9     6
-2.8806000000e-06     1     3     9     7
 1.2080000000e-07     1     3     9     8
-5.7692925200e-02     1     3     9     9
 2.4032000000e-06     1     3     9    10
 1.0388170000e-04     1     3     9    11
-1.4158885000e-03     1     3     9    12
-6.7613229000e-03     1     3     9    13
 8.2988004700e-02     1     3    10     1
-4.2118208100e-02     1     3    10     2
 7.9726720000e-04     1     3    10     4
-2.8953900000e-05     1     3    10     5
 1.5388300000e-05     1     3    10     6
 1.1078587000e-03     1     3    10     7
 3.6370000000e-06     1     3    10     8
 3.8143000000e-06     1     3    10     9
-6.0423158500e-02     1     3    10    10
-2.5462087000e-03     1     3    10    11
 2.3986420000e-04     1     3    10    12
-8.5955700000e-05     1     3    10    13
 9.9116837000e-03     1     3    11     1
-2.7887774000e-03     1     3    11     2
-5.1105710000e-04     1     3    11     4
-3.5579000000e-06     1     3    11     5
-9.9394900000e-05     1     3    11     6
 3.4364392000e-03     1     3    11     7
-3.2739430000e-04     1     3    11     8
 5.5415500000e-05     1     3    11     9
-1.0464461000e-03     1     3    11    10
-4.7948453000e-02     1     3    11    11
-5.8703000000e-06     1     3    11    12
-3.6770000000e-06     1     3    11    13
-8.5769360000e-04     1     3    12     1
 2.3904730000e-04     1     3    12     2
 4.6491500000e-05     1     3    12     4
 3.0243650000e-04     1     3    12     5
-1.0596329000e-03     1     3    12     6
-2.9541470000e-04     1     3    12     7
-3.4312008000e-03     1     3    12     8
-7.2051830000e-04     1     3    12     9
 9.9754000000e-05     1     3    12    10
-6.3344000000e-06     1     3    12    11
-4.8552049300e-02     1     3    12    12
 2.2610000000e-07     1     3    12    13
 3.7300360000e-04     1     3    13     1
-9.7326600000e-05     1     3    13     2
-1.3217800000e-05     1     3    13     4
 1.0625951000e-03     1     3    13     5
 3.0149930000e-04     1     3    13     6
 1.2407820000e-04     1     3    13     7
 7.1460030000e-04     1     3    13     8
-3.4396596000e-03     1     3    13     9
-3.2729300000e-05     1     3    13    10
-2.4809000000e-06     1     3    13    11
-3.3200000000e-07     1     3    13    12
-4.8567149700e-02     1     3    13    13
-1.7343945000e-02     1     4     2     1
 2.4353074200e-02     1     4     2     2
 2.9115770000e-03     1     4     2     3
 7.6500000000e-08     1     4     2     5
-1.4700000000e-08     1     4     2     6
 1.4337288600e-02     1     4     2     7
-6.8488400000e-05     1     4     2     8
 1.3391050000e-04     1     4     2     9
-6.4528160000e-04     1     4     2    10
 3.1271890000e-04     1     4     2    11
-2.3329300000e-05     1     4     2    12
 2.8900000000e-06     1     4     2    13
 2.9206275000e-03     1     4     3     1
-8.6643613000e-03     1     4     3     2
-2.6279760000e-03     1     4     3     3
-1.5200000000e-08     1     4     3     5
-9.6300000000e-08     1     4     3     6
 2.3276467800e-02     1     4     3     7
-1.3057100000e-04     1     4     3     8
 3.1144030000e-04     1     4     3     9
 5.1799858000e-03     1     4     3    10
-1.5248887100e-02     1     4     3    11
 1.2975744000e-03     1     4     3    12
-4.1874920000e-04     1     4     3    13
-8.8307989600e-02     1     4     4     1
 8.1306336100e-02     1     4     4     2
 5.4561303300e-02     1     4     4     3
-1.0018400000e-05     1     4     4     5
-5.1415000000e-06     1     4     4     6
 8.9719404000e-03     1     4     4     7
-1.5184530000e-04     1     4     4     8
 1.9607460000e-04     1     4     4     9
-1.8931573600e-02     1     4     4    10
 2.8125225300e-02     1     4     4    11
-2.3575740000e-03     1     4     4    12
 4.6038510000e-04     1     4     4    13
-4.0242800000e-05     1     4     5     1
 7.5042100000e-05     1     4     5     2
 1.5408800000e-05     1     4     5     3
-9.5778750000e-04     1     4     5     5
-3.5300000000e-08     1     4     5     6
-2.1891260000e-04     1     4     5     7
 9.4126140000e-04     1     4     5     8
 1.2972367600e-02     1     4     5     9
 1.5071600000e-05     1     4     5    10
-2.0613460000e-04     1     4     5    11
-7.9492035000e-03     1     4     5    12
-2.7973612400e-02     1     4     5    13
-2.1016400000e-05     1     4     6     1
 3.8750400000e-05     1     4     6     2
 7.9727000000e-06     1     4     6     3
-7.0000000000e-09     1     4     6     5
-9.5760050000e-04     1     4     6     6
-1.2124270000e-04     1     4     6     7
-1.2977758800e-02     1     4     6     8
 9.3853570000e-04     1     4     6     9
 4.8476500000e-05     1     4     6    10
 2.4693647000e-03     1     4     6    11
 2.7922489000e-02     1     4     6    12
-7.9720569000e-03     1     4     6    13
 7.0399561800e-02     1     4     7     1
-3.5369063200e-02     1     4     7     2
-1.0956841700e-02     1     4     7     3
-9.4460000000e-07     1     4     7     5
-1.9404000000e-06     1     4     7     6
 6.0570616000e-03     1     4     7     7
 5.1493500000e-05     1     4     7     8
 1.7986300000e-05     1     4     7     9
 2.0128875600e-02     1     4     7    10
-5.0177865000e-03     1     4     7    11
 4.5562930000e-04     1     4     7    12
-1.3215360000e-04     1     4     7    13
-3.3415720000e-04     1     4     8     1
 1.6020640000e-04     1     4     8     2
 4.8963600000e-05     1     4     8     3
 1.4114100000e-04     1     4     8     5
-1.9513099000e-03     1     4     8     6
-1.9642200000e-05     1     4     8     7
 2.6115079000e-03     1     4     8     8
-1.0370000000e-07     1     4     8     9
-1.1604530000e-04     1     4     8    10
 3.8439450000e-04     1     4     8    11
 4.3411645000e-03     1     4     8    12
-9.0997470000e-04     1     4     8    13
 7.6249210000e-04     1     4     9     1
-3.5912500000e-04     1     4     9     2
-1.0436450000e-04     1     4     9     3
 1.9510878000e-03     1     4     9     5
 1.4115270000e-04     1     4     9     6
 4.0691900000e-05     1     4     9     7
 7.0520000000e-07     1     4     9     8
 2.6107372000e-03     1     4     9     9
 2.0349710000e-04     1     4     9    10
-2.5713200000e-05     1     4     9    11
 9.0772350000e-04     1     4     9    12
 4.3558048000e-03     1     4     9    13
 1.0841999400e-02     1     4    10     1
-4.8875962000e-03     1     4    10     2
-7.9726720000e-04     1     4    10     3
-4.0394000000e-06     1     4    10     5
 3.7524000000e-06     1     4    10     6
 7.4776740000e-04     1     4    10     7
-1.5510600000e-05     1     4    10     8
-2.1267000000e-06     1     4    10     9
-3.6693684000e-03     1     4    10    10
 1.1855057000e-03     1     4    10    11
-1.1350110000e-04     1     4    10    12
 1.8256900000e-05     1     4    10    13
-1.6488785100e-02     1     4    11     1
 1.1648419000e-03     1     4    11     2
 5.1105710000e-04     1     4    11     3
 9.5862000000e-06     1     4    11     5
 7.7300900000e-05     1     4    11     6
 5.5385218000e-03     1     4    11     7
-6.3807310000e-04     1     4    11     8
 7.3338000000e-05     1     4    11     9
-5.3170891000e-03     1     4    11    10
 1.4913454000e-03     1     4    11    11
-4.1582600000e-05     1     4    11    12
-2.6707200000e-05     1     4    11    13
 1.4146017000e-03     1     4    12     1
-9.6584000000e-05     1     4    12     2
-4.6491500000e-05     1     4    12     3
-2.2879620000e-04     1     4    12     5
 8.0387380000e-04     1     4    12     6
-4.6708250000e-04     1     4    12     7
-6.5746486000e-03     1     4    12     8
-1.3736983000e-03     1     4    12     9
 4.7342850000e-04     1     4    12    10
-4.9916000000e-05     1     4    12    11
 1.0021634000e-03     1     4    12    12
 3.5817000000e-06     1     4    12    13
-4.6865320000e-04     1     4    13     1
 2.7756800000e-05     1     4    13     2
 1.3217800000e-05     1     4    13     3
-8.0689690000e-04     1     4    13     5
-2.2741120000e-04     1     4    13     6
 1.7812820000e-04     1     4    13     7
 1.3675409000e-03     1     4    13     8
-6.5856377000e-03     1     4    13     9
-1.4960020000e-04     1     4    13    10
 3.2210300000e-05     1     4    13    11
-5.6600000000e-07     1     4    13    12
 9.9995770000e-04     1     4    13    13
 1.7781650000e-04     1     5     2     1
-2.4912070000e-04     1     5     2     2
-3.0028800000e-05     1     5     2     3
-7.6500000000e-08     1     5     2     4
 1.1430000000e-07     1     5     2     6
-1.4967700000e-04     1     5     2     7
 9.0625490000e-04     1     5     2     8
 1.2501094000e-02     1     5     2     9
-2.1584000000e-05     1     5     2    10
 3.2617000000e-06     1     5     2    11
 4.7321400000e-05     1     5     2    12
 1.6540490000e-04     1     5     2    13
-2.9808800000e-05     1     5     3     1
 8.7005300000e-05     1     5     3     2
 2.6953200000e-05     1     5     3     3
 1.5200000000e-08     1     5     3     4
 6.7800000000e-08     1     5     3     6
-2.3402310000e-04     1     5     3     7
 1.9437267000e-03     1     5     3     8
 2.6815534200e-02     1     5     3     9
-1.1527230000e-04     1     5     3    10
 1.4187100000e-05     1     5     3    11
 4.2281137000e-03     1     5     3    12
 1.4830899500e-02     1     5     3    13
-4.0242800000e-05     1     5     4     1
 7.4965600000e-05     1     5     4     2
 1.5424000000e-05     1     5     4     3
 1.0018400000e-05     1     5     4     4
-2.8300000000e-08     1     5     4     6
-2.1796800000e-04     1     5     4     7
 8.0012040000e-04     1     5     4     8
 1.1021279800e-02     1     5     4     9
 1.9111000000e-05     1     5     4    10
-2.1572080000e-04     1     5     4    11
-7.7204073000e-03     1     5     4    12
-2.7166715500e-02     1     5     4    13
-9.3319667700e-02     1     5     5     1
 8.8043545800e-02     1     5     5     2
 5.6854656100e-02     1     5     5     3
 9.5778750000e-04     1     5     5     4
-4.8333000000e-06     1     5     5     6
-1.0383911500e-02     1     5     5     7
-4.2347200000e-05     1     5     5     8
-2.5665920000e-04     1     5     5     9
-1.4588849900e-02     1     5     5    10
-2.1137172400e-02     1     5     5    11
 2.0683807000e-03     1     5     5    12
 1.9380696000e-03     1     5     5    13
 2.4820000000e-07     1     5     6     1
-3.4980000000e-07     1     5     6     2
-5.3400000000e-08     1     5     6     3
 7.0000000000e-09     1     5     6     4
 9.4793000000e-06     1     5     6     6
 1.5759000000e-06     1     5     6     7
 1.2852770000e-04     1     5     6     8
-6.7431900000e-05     1     5     6     9
 1.1014000000e-06     1     5     6    10
 4.7561670000e-04     1     5     6    11
 1.7495008000e-03     1     5     6    12
 4.8132420000e-04     1     5     6    13
-7.2711550000e-04     1     5     7     1
 3.7199010000e-04     1     5     7     2
 1.1467170000e-04     1     5     7     3
 9.4460000000e-07     1     5     7     4
-1.2100000000e-08     1     5     7     6
-7.4479600000e-05     1     5     7     7
-5.4969400000e-05     1     5     7     8
-7.4980680000e-04     1     5     7     9
-2.0454540000e-04     1     5     7    10
-2.0114300000e-05     1     5     7    11
 1.8658090000e-03     1     5     7    12
 6.5424614000e-03     1     5     7    13
 4.8959720000e-03     1     5     8     1
-2.3611998000e-03     1     5     8     2
-6.9280610000e-04     1     5     8     3
-1.4114100000e-04     1     5     8     4
 2.1138700000e-05     1     5     8     6
 3.8216940000e-04     1     5     8     7
-2.4319800000e-05     1     5     8     8
 5.0174000000e-06     1     5     8     9
 1.4168229000e-03     1     5     8    10
 4.2959080000e-04     1     5     8    11
 3.2323450000e-04     1     5     8    12
 2.9611200000e-05     1     5     8    13
 6.7551869900e-02     1     5     9     1
-3.2578426200e-02     1     5     9     2
-9.5629263000e-03     1     5     9     3
-1.9510878000e-03     1     5     9     4
 8.9444000000e-06     1     5     9     6
 5.2727471000e-03     1     5     9     7
 3.9370600000e-05     1     5     9     8
 2.4342200000e-05     1     5     9     9
 1.9543692500e-02     1     5     9    10
 4.6197196000e-03     1     5     9    11
-4.7361500000e-04     1     5     9    12
-3.4605800000e-04     1     5     9    13
-2.6283790000e-04     1     5    10     1
 1.2323640000e-04     1     5    10     2
 2.8953900000e-05     1     5    10     3
 4.0394000000e-06     1     5    10     4
-3.1000000000e-09     1     5    10     6
-1.8478400000e-05     1     5    10     7
 6.3992400000e-05     1     5    10     8
 8.8994950000e-04     1     5    10     9
-8.1000000000e-07     1     5    10    10
-4.1170000000e-06     1     5    10    11
-5.7615600000e-04     1     5    10    12
-2.0228065000e-03     1     5    10    13
 1.7518800000e-05     1     5    11     1
 1.8614000000e-06     1     5    11     2
 3.5579000000e-06     1     5    11     3
-9.5862000000e-06     1     5    11     4
-8.4860000000e-07     1     5    11     6
-3.2982200000e-05     1     5    11     7
-2.4062960000e-04     1     5    11     8
-2.3106473000e-03     1     5    11     9
 2.3967800000e-05     1     5    11    10
-1.9635900000e-05     1     5    11    11
-7.3213230000e-04     1     5    11    12
-2.4473216000e-03     1     5    11    13
 5.0508126000e-03     1     5    12     1
-6.7833390000e-04     1     5    12     2
-3.0243650000e-04     1     5    12     3
 2.2879620000e-04     1     5    12     4
-9.4221000000e-06     1     5    12     6
-9.1072950000e-04     1     5    12     7
-2.2430640000e-04     1     5    12     8
 2.3374450000e-04     1     5    12     9
 1.0805328000e-03     1     5    12    10
 8.7310830000e-04     1     5    12    11
-1.0332780000e-04     1     5    12    12
 2.7181960000e-04     1     5    12    13
 1.7713025600e-02     1     5    13     1
-2.3739968000e-03     1     5    13     2
-1.0625951000e-03     1     5    13     3
 8.0689690000e-04     1     5    13     4