&FCI NORB= 13,NELEC=  2,MS2=0,
 ORBSYM=1,1,1,1,1,1,1,1,1,1,1,1,1
 ISYM=1,
&END
 3.8386275700e-02     1     1     2     2
 1.1299330000e-04     1     1     2     3
-4.1370000000e-07     1     1     2     4
 4.3872000000e-06     1     1     2     5
 6.4766510600e-02     1     1     2     6
-2.8377100000e-05     1     1     2     7
-7.3111530000e-04     1     1     2     8
 2.7644024800e-02     1     1     2     9
 2.2536931000e-03     1     1     2    10
 5.9178600000e-05     1     1     2    11
 7.7629400000e-05     1     1     2    12
 5.0647700000e-05     1     1     2    13
 1.1299330000e-04     1     1     3     2
 1.0016511770e-01     1     1     3     3
-8.0422000000e-06     1     1     3     4
 5.2996000000e-06     1     1     3     5
 5.0478196000e-03     1     1     3     6
-6.2635370000e-04     1     1     3     7
 1.4218293000e-03     1     1     3     8
-6.1419329700e-02     1     1     3     9
-4.4366312900e-02     1     1     3    10
-1.5937613000e-03     1     1     3    11
-1.7933588000e-03     1     1     3    12
-8.9924530000e-04     1     1     3    13
-4.1370000000e-07     1     1     4     2
-8.0422000000e-06     1     1     4     3
 1.0299904420e-01     1     1     4     4
 6.8900000000e-08     1     1     4     5
 4.2716700000e-05     1     1     4     6
 5.6997880000e-02     1     1     4     7
-2.1767393400e-02     1     1     4     8
-1.1031639000e-03     1     1     4     9
-1.5468569000e-03     1     1     4    10
-5.4325385000e-03     1     1     4    11
 3.9627401900e-02     1     1     4    12
 4.4638657000e-03     1     1     4    13
 4.3872000000e-06     1     1     5     2
 5.2996000000e-06     1     1     5     3
 6.8900000000e-08     1     1     5     4
 1.0300209890e-01     1     1     5     5
-3.5439400000e-05     1     1     5     6
-2.1782489700e-02     1     1     5     7
-5.6996321400e-02     1     1     5     8
-1.1701196000e-03     1     1     5     9
 1.7469381000e-03     1     1     5    10
-3.9766998300e-02     1     1     5    11
-5.4845276000e-03     1     1     5    12
 2.2741303000e-03     1     1     5    13
 6.4766510600e-02     1     1     6     2
 5.0478196000e-03     1     1     6     3
 4.2716700000e-05     1     1     6     4
-3.5439400000e-05     1     1     6     5
 1.3283859390e-01     1     1     6     6
 1.1613600000e-05     1     1     6     7
 1.7024130000e-04     1     1     6     8
-6.5006049000e-03     1     1     6     9
-8.8433791000e-03     1     1     6    10
-4.8452320000e-04     1     1     6    11
-4.0010150000e-04     1     1     6    12
-2.5663500000e-04     1     1     6    13
-2.8377100000e-05     1     1     7     2
-6.2635370000e-04     1     1     7     3
 5.6997880000e-02     1     1     7     4
-2.1782489700e-02     1     1     7     5
 1.1613600000e-05     1     1     7     6
 1.2810756010e-01     1     1     7     7
-1.7244000000e-06     1     1     7     8
 2.4782300000e-05     1     1     7     9
-6.3468690000e-04     1     1     7    10
 3.5582021000e-03     1     1     7    11
 1.5159587900e-02     1     1     7    12
 1.2485006000e-03     1     1     7    13
-7.3111530000e-04     1     1     8     2
 1.4218293000e-03     1     1     8     3
-2.1767393400e-02     1     1     8     4
-5.6996321400e-02     1     1     8     5
 1.7024130000e-04     1     1     8     6
-1.7244000000e-06     1     1     8     7
 1.2813166820e-01     1     1     8     8
-1.4679200000e-05     1     1     8     9
-8.1249040000e-04     1     1     8    10
 1.5178432300e-02     1     1     8    11
-3.5237123000e-03     1     1     8    12
-1.3795070000e-03     1     1     8    13
 2.7644024800e-02     1     1     9     2
-6.1419329700e-02     1     1     9     3
-1.1031639000e-03     1     1     9     4
-1.1701196000e-03     1     1     9     5
-6.5006049000e-03     1     1     9     6
 2.4782300000e-05     1     1     9     7
-1.4679200000e-05     1     1     9     8
 1.3475580740e-01     1     1     9     9
 1.6226758500e-02     1     1     9    10
 9.5033500000e-04     1     1     9    11
 4.6220170000e-04     1     1     9    12
 2.7570670000e-04     1     1     9    13
 2.2536931000e-03     1     1    10     2
-4.4366312900e-02     1     1    10     3
-1.5468569000e-03     1     1    10     4
 1.7469381000e-03     1     1    10     5
-8.8433791000e-03     1     1    10     6
-6.3468690000e-04     1     1    10     7
-8.1249040000e-04     1     1    10     8
 1.6226758500e-02     1     1    10     9
 1.5530276400e-01     1     1    10    10
 1.3815000000e-05     1     1    10    11
 3.3537800000e-05     1     1    10    12
 1.5760050000e-04     1     1    10    13
 5.9178600000e-05     1     1    11     2
-1.5937613000e-03     1     1    11     3
-5.4325385000e-03     1     1    11     4
-3.9766998300e-02     1     1    11     5
-4.8452320000e-04     1     1    11     6
 3.5582021000e-03     1     1    11     7
 1.5178432300e-02     1     1    11     8
 9.5033500000e-04     1     1    11     9
 1.3815000000e-05     1     1    11    10
 1.5340428200e-01     1     1    11    11
 2.6888400000e-05     1     1    11    12
-5.0461170000e-04     1     1    11    13
 7.7629400000e-05     1     1    12     2
-1.7933588000e-03     1     1    12     3
 3.9627401900e-02     1     1    12     4
-5.4845276000e-03     1     1    12     5
-4.0010150000e-04     1     1    12     6
 1.5159587900e-02     1     1    12     7
-3.5237123000e-03     1     1    12     8
 4.6220170000e-04     1     1    12     9
 3.3537800000e-05     1     1    12    10
 2.6888400000e-05     1     1    12    11
 1.5334216650e-01     1     1    12    12
 7.4212210000e-04     1     1    12    13
 5.0647700000e-05     1     1    13     2
-8.9924530000e-04     1     1    13     3
 4.4638657000e-03     1     1    13     4
 2.2741303000e-03     1     1    13     5
-2.5663500000e-04     1     1    13     6
 1.2485006000e-03     1     1    13     7
-1.3795070000e-03     1     1    13     8
 2.7570670000e-04     1     1    13     9
 1.5760050000e-04     1     1    13    10
-5.0461170000e-04     1     1    13    11
 7.4212210000e-04     1     1    13    12
 1.4205902940e-01     1     1    13    13
-3.8386275700e-02     1     2     2     1
-3.2542785900e-02     1     2     2     3
-3.1366340000e-04     1     2     2     4
 2.0226130000e-04     1     2     2     5
-4.7459092300e-02     1     2     2     6
 8.3660000000e-06     1     2     2     7
 1.1592320000e-04     1     2     2     8
-4.2125790000e-03     1     2     2     9
 1.9952267000e-03     1     2     2    10
 8.2112600000e-05     1     2     2    11
 6.8120700000e-05     1     2     2    12
 4.3331800000e-05     1     2     2    13
-1.1299330000e-04     1     2     3     1
-7.9040350600e-02     1     2     3     3
-2.7944700000e-05     1     2     3     4
 1.8854900000e-05     1     2     3     5
 6.3680703000e-03     1     2     3     6
 5.3339900000e-04     1     2     3     7
-1.2203258000e-03     1     2     3     8
 5.2004785800e-02     1     2     3     9
 1.0226615400e-02     1     2     3    10
 3.3340040000e-04     1     2     3    11
 4.2998760000e-04     1     2     3    12
 2.0764790000e-04     1     2     3    13
 4.1370000000e-07     1     2     4     1
-2.8313500000e-05     1     2     4     3
-7.7672591600e-02     1     2     4     4
-3.8000000000e-08     1     2     4     5
 6.6241800000e-05     1     2     4     6
-4.9089594400e-02     1     2     4     7
 1.8745264500e-02     1     2     4     8
 9.4062850000e-04     1     2     4     9
 3.8309140000e-04     1     2     4    10
 1.4052130000e-03     1     2     4    11
-1.0278340800e-02     1     2     4    12
-1.1454785000e-03     1     2     4    13
-4.3872000000e-06     1     2     5     1
 1.8662800000e-05     1     2     5     3
 3.6630000000e-07     1     2     5     4
-7.7674041200e-02     1     2     5     5
-3.6687800000e-05     1     2     5     6
 1.8759712200e-02     1     2     5     7
 4.9085044100e-02     1     2     5     8
 9.9771560000e-04     1     2     5     9
-4.8276910000e-04     1     2     5    10
 1.0306909800e-02     1     2     5    11
 1.4240197000e-03     1     2     5    12
-5.8636840000e-04     1     2     5    13
-6.4766510600e-02     1     2     6     1
 1.3328472000e-03     1     2     6     3
 1.5060200000e-05     1     2     6     4
-5.5370000000e-06     1     2     6     5
-7.7095443600e-02     1     2     6     6
-1.5729100000e-05     1     2     6     7
-3.1135650000e-04     1     2     6     8
 1.2516163700e-02     1     2     6     9
 7.7123894000e-03     1     2     6    10
 3.8645690000e-04     1     2     6    11
 3.3674920000e-04     1     2     6    12
 2.0919050000e-04     1     2     6    13
 2.8377100000e-05     1     2     7     1
 2.8355990000e-04     1     2     7     3
-2.5939508900e-02     1     2     7     4
 9.9113282000e-03     1     2     7     5
-6.9156000000e-06     1     2     7     6
-7.6017951100e-02     1     2     7     7
 1.8704000000e-06     1     2     7     8
-2.5760900000e-05     1     2     7     9
 4.2091530000e-04     1     2     7    10
-2.3372694000e-03     1     2     7    11
-9.9477246000e-03     1     2     7    12
-8.5027560000e-04     1     2     7    13
 7.3111530000e-04     1     2     8     1
-6.1262950000e-04     1     2     8     3
 9.9041057000e-03     1     2     8     4
 2.5936721300e-02     1     2     8     5
-7.5975200000e-05     1     2     8     6
 1.1484000000e-06     1     2     8     7
-7.6035113300e-02     1     2     8     8
-7.5248000000e-06     1     2     8     9
 5.3510740000e-04     1     2     8    10
-9.9604039000e-03     1     2     8    11
 2.3149973000e-03     1     2     8    12
 9.4020930000e-04     1     2     8    13
-2.7644024800e-02     1     2     9     1
 2.6277159300e-02     1     2     9     3
 4.8589740000e-04     1     2     9     4
 5.3482820000e-04     1     2     9     5
 3.4252612000e-03     1     2     9     6
-2.5092500000e-05     1     2     9     7
-4.9483000000e-06     1     2     9     8
-8.0327594300e-02     1     2     9     9
-1.0819267600e-02     1     2     9    10
-6.1196430000e-04     1     2     9    11
-2.9146400000e-04     1     2     9    12
-1.7778940000e-04     1     2     9    13
-2.2536931000e-03     1     2    10     1
 5.5824876000e-03     1     2    10     3
 2.0543840000e-04     1     2    10     4
-2.5801740000e-04     1     2    10     5
 5.1142204000e-03     1     2    10     6
 5.6191270000e-04     1     2    10     7
 7.2143200000e-04     1     2    10     8
-1.5053398700e-02     1     2    10     9
-9.5661865900e-02     1     2    10    10
 2.2598600000e-05     1     2    10    11
 8.5666000000e-06     1     2    10    12
-1.4893950000e-04     1     2    10    13
-5.9178600000e-05     1     2    11     1
 1.8024500000e-04     1     2    11     3
 7.4897160000e-04     1     2    11     4
 5.4926539000e-03     1     2    11     5
 2.8163520000e-04     1     2    11     6
-3.1488066000e-03     1     2    11     7
-1.3430821000e-02     1     2    11     8
-8.4750230000e-04     1     2    11     9
 1.9440200000e-05     1     2    11    10
-9.4904500600e-02     1     2    11    11
-2.6573100000e-05     1     2    11    12
 5.4470490000e-04     1     2    11    13
-7.7629400000e-05     1     2    12     1
 2.3167690000e-04     1     2    12     3
-5.4774375000e-03     1     2    12     4
 7.5885920000e-04     1     2    12     5
 2.3736720000e-04     1     2    12     6
-1.3412037900e-02     1     2    12     7
 3.1194812000e-03     1     2    12     8
-4.0507290000e-04     1     2    12     9
 7.4337000000e-06     1     2    12    10
-2.6137100000e-05     1     2    12    11
-9.4849653400e-02     1     2    12    12
-7.9810840000e-04     1     2    12    13
-5.0647700000e-05     1     2    13     1
 1.1233580000e-04     1     2    13     3
-6.1154140000e-04     1     2    13     4
-3.1296790000e-04     1     2    13     5
 1.4694190000e-04     1     2    13     6
-1.1489833000e-03     1     2    13     7
 1.2727965000e-03     1     2    13     8
-2.5342930000e-04     1     2    13     9
-1.4813870000e-04     1     2    13    10
 5.4272580000e-04     1     2    13    11
-7.9656980000e-04     1     2    13    12
-8.4951792100e-02     1     2    13    13
-1.1299330000e-04     1     3     2     1
 3.2542785900e-02     1     3     2     2
 3.6880000000e-07     1     3     2     4
 1.9210000000e-07     1     3     2     5
 5.0352231000e-03     1     3     2     6
 2.4983910000e-04     1     3     2     7
-6.0769630000e-04     1     3     2     8
 2.5727626500e-02     1     3     2     9
 4.6441278000e-03     1     3     2    10
 1.5315540000e-04     1     3     2    11
 1.9831070000e-04     1     3     2    12
 9.5312100000e-05     1     3     2    13
-1.0016511770e-01     1     3     3     1
 7.9040350600e-02     1     3     3     2
-3.8628170000e-04     1     3     3     4
 2.5369380000e-04     1     3     3     5
 2.6648202100e-02     1     3     3     6
 1.6060000000e-05     1     3     3     7
 1.2465460000e-04     1     3     3     8
-6.0424979000e-03     1     3     3     9
-4.2413417800e-02     1     3     3    10
-1.7498613000e-03     1     3     3    11
-2.0450799000e-03     1     3     3    12
-8.8552400000e-04     1     3     3    13
 8.0422000000e-06     1     3     4     1
 2.8313500000e-05     1     3     4     2
 4.0614824800e-02     1     3     4     4
 1.1960000000e-07     1     3     4     5
 1.4755000000e-05     1     3     4     6
 5.6775830000e-04     1     3     4     7
-2.2019900000e-04     1     3     4     8
-1.5614000000e-06     1     3     4     9
-1.5778058000e-03     1     3     4    10
-4.7747535000e-03     1     3     4    11
 3.4908775600e-02     1     3     4    12
 4.2560549000e-03     1     3     4    13
-5.2996000000e-06     1     3     5     1
-1.8662800000e-05     1     3     5     2
-1.1810000000e-07     1     3     5     4
 4.0615103100e-02     1     3     5     5
-1.0334400000e-05     1     3     5     6
-2.1716100000e-04     1     3     5     7
-5.7220930000e-04     1     3     5     8
-4.9193700000e-05     1     3     5     9
 1.6163616000e-03     1     3     5    10
-3.5064973100e-02     1     3     5    11
-4.7972955000e-03     1     3     5    12
 1.9132479000e-03     1     3     5    13
-5.0478196000e-03     1     3     6     1
-1.3328472000e-03     1     3     6     2
-7.8070000000e-07     1     3     6     4
-1.1760000000e-07     1     3     6     5
 4.1327918600e-02     1     3     6     6
 1.2304410000e-04     1     3     6     7
-2.9879750000e-04     1     3     6     8
 1.3530113900e-02     1     3     6     9
 2.8749617000e-03     1     3     6    10
 7.3828800000e-05     1     3     6    11
 1.2307010000e-04     1     3     6    12
 4.6237100000e-05     1     3     6    13
 6.2635370000e-04     1     3     7     1
-2.8355990000e-04     1     3     7     2
 2.1429975000e-03     1     3     7     4
-8.1948000000e-04     1     3     7     5
-1.2717960000e-04     1     3     7     6
 4.3103996900e-02     1     3     7     7
 8.4840000000e-07     1     3     7     8
-2.9615000000e-05     1     3     7     9
-4.7426150000e-04     1     3     7    10
 2.5623169000e-03     1     3     7    11
 1.0909032400e-02     1     3     7    12
 9.5005020000e-04     1     3     7    13
-1.4218293000e-03     1     3     8     1
 6.1262950000e-04     1     3     8     2
-8.1929170000e-04     1     3     8     4
-2.1422144000e-03     1     3     8     5
 2.3555420000e-04     1     3     8     6
 3.8100000000e-08     1     3     8     7
 4.3104677400e-02     1     3     8     8
 5.4684200000e-05     1     3     8     9
-6.2181280000e-04     1     3     8    10
 1.0926417200e-02     1     3     8    11
-2.5399842000e-03     1     3     8    12
-9.8671450000e-04     1     3     8    13
 6.1419329700e-02     1     3     9     1
-2.6277159300e-02     1     3     9     2
-1.8859200000e-05     1     3     9     4
-5.8446200000e-05     1     3     9     5
-9.6930862000e-03     1     3     9     6
 2.0265000000e-06     1     3     9     7
 6.7162400000e-05     1     3     9     8
 4.1341285500e-02     1     3     9     9
 1.3077704800e-02     1     3     9    10
 7.7888960000e-04     1     3     9    11
 4.5588440000e-04     1     3     9    12
 2.3856480000e-04     1     3     9    13
 4.4366312900e-02     1     3    10     1
-5.5824876000e-03     1     3    10     2
-4.6431300000e-05     1     3    10     4
 6.0185300000e-05     1     3    10     5
-8.5389610000e-04     1     3    10     6
 1.5014500000e-05     1     3    10     7
-1.0460200000e-05     1     3    10     8
-4.1358130000e-04     1     3    10     9
 4.1112924300e-02     1     3    10    10
 7.4166000000e-05     1     3    10    11
 1.1334640000e-04     1     3    10    12
 1.7713200000e-05     1     3    10    13
 1.5937613000e-03     1     3    11     1
-1.8024500000e-04     1     3    11     2
-2.2723520000e-04     1     3    11     4
-1.6767680000e-03     1     3    11     5
-3.9804000000e-05     1     3    11     6
 3.7972000000e-06     1     3    11     7
 2.6717500000e-05     1     3    11     8
-2.7941000000e-05     1     3    11     9
 1.8405100000e-05     1     3    11    10
 3.9746807800e-02     1     3    11    11
-2.7635000000e-06     1     3    11    12
 4.9584600000e-05     1     3    11    13
 1.7933588000e-03     1     3    12     1
-2.3167690000e-04     1     3    12     2
 1.6710524000e-03     1     3    12     4
-2.3051100000e-04     1     3    12     5
-3.8468200000e-05     1     3    12     6
 3.0882500000e-05     1     3    12     7
-7.9150000000e-07     1     3    12     8
-1.8832400000e-05     1     3    12     9
-1.9204000000e-06     1     3    12    10
 6.1109000000e-06     1     3    12    11
 3.9744825300e-02     1     3    12    12
-4.3033500000e-05     1     3    12    13
 8.9924530000e-04     1     3    13     1
-1.1233580000e-04     1     3    13     2
 1.9114100000e-04     1     3    13     4
 9.7597600000e-05     1     3    13     5
-2.5899600000e-05     1     3    13     6
-7.0872000000e-05     1     3    13     7
 4.6398700000e-05     1     3    13     8
-9.6576000000e-06     1     3    13     9
 1.1757100000e-05     1     3    13    10
 4.0094900000e-05     1     3    13    11
-1.1139860000e-04     1     3    13    12
 3.9272546600e-02     1     3    13    13
 4.1370000000e-07     1     4     2     1
 3.1366340000e-04     1     4     2     2
-3.6880000000e-07     1     4     2     3
-4.0430000000e-07     1     4     2     5
 5.1181600000e-05     1     4     2     6
-2.3150085500e-02     1     4     2     7
 8.8411588000e-03     1     4     2     8
 4.5473110000e-04     1     4     2     9
 1.7765300000e-04     1     4     2    10
 6.5624140000e-04     1     4     2    11
-4.8009033000e-03     1     4     2    12
-5.3393710000e-04     1     4     2    13
 8.0422000000e-06     1     4     3     1
 2.7944700000e-05     1     4     3     2
 3.8628170000e-04     1     4     3     3
 2.3770000000e-07     1     4     3     5
 1.5535700000e-05     1     4     3     6
-1.5752392000e-03     1     4     3     7
 5.9909270000e-04     1     4     3     8
 1.7297800000e-05     1     4     3     9
-1.5313745000e-03     1     4     3    10
-4.5475183000e-03     1     4     3    11
 3.3237723200e-02     1     4     3    12
 4.0649139000e-03     1     4     3    13
-1.0299904420e-01     1     4     4     1
 7.7672591600e-02     1     4     4     2
-4.0614824800e-02     1     4     4     3
 2.5544840000e-04     1     4     4     5
 2.5447953500e-02     1     4     4     6
 1.1956500000e-05     1     4     4     7
 1.9160160000e-04     1     4     4     8
-6.7579271000e-03     1     4     4     9
 1.8457819300e-02     1     4     4    10
-2.4425486000e-03     1     4     4    11
 2.0717288000e-03     1     4     4    12
-2.2718719500e-02     1     4     4    13
-6.8900000000e-08     1     4     5     1
-3.6630000000e-07     1     4     5     2
 1.1810000000e-07     1     4     5     3
 3.8900950000e-04     1     4     5     5
-7.1900000000e-08     1     4     5     6
 7.0505000000e-06     1     4     5     7
-5.5672000000e-06     1     4     5     8
-5.6880000000e-07     1     4     5     9
 1.0269930000e-04     1     4     5    10
-8.8375600000e-05     1     4     5    11
-4.1852851000e-03     1     4     5    12
 2.2503795200e-02     1     4     5    13
-4.2716700000e-05     1     4     6     1
-1.5060200000e-05     1     4     6     2
 7.8070000000e-07     1     4     6     3
 1.4800000000e-08     1     4     6     5
 3.9445660000e-04     1     4     6     6
-1.1219444800e-02     1     4     6     7
 4.2870390000e-03     1     4     6     8
 2.3815060000e-04     1     4     6     9
 1.4533290000e-04     1     4     6    10
 5.6952040000e-04     1     4     6    11
-4.1859358000e-03     1     4     6    12
-4.4876180000e-04     1     4     6    13
-5.6997880000e-02     1     4     7     1
 2.5939508900e-02     1     4     7     2
-2.1429975000e-03     1     4     7     3
 5.9387000000e-06     1     4     7     5
 1.1431285800e-02     1     4     7     6
 4.0857610000e-04     1     4     7     7
-6.0930800000e-05     1     4     7     8
 2.2617691000e-03     1     4     7     9
 2.4614633000e-03     1     4     7    10
-6.4068880000e-04     1     4     7    11
 6.6417880000e-04     1     4     7    12
-6.3784474000e-03     1     4     7    13
 2.1767393400e-02     1     4     8     1
-9.9041057000e-03     1     4     8     2
 8.1929170000e-04     1     4     8     3
-2.6363700000e-05     1     4     8     5
-4.3639305000e-03     1     4     8     6
 1.2036800000e-05     1     4     8     7
 4.3366130000e-04     1     4     8     8
-8.6447520000e-04     1     4     8     9
-9.7611160000e-04     1     4     8    10
 2.8748120000e-04     1     4     8    11
 8.8734990000e-04     1     4     8    12
-2.5094609000e-03     1     4     8    13
 1.1031639000e-03     1     4     9     1
-4.8589740000e-04     1     4     9     2
 1.8859200000e-05     1     4     9     3
-4.3830000000e-07     1     4     9     5
-1.8907780000e-04     1     4     9     6
-4.2898000000e-04     1     4     9     7
 1.6481850000e-04     1     4     9     8
 3.8455780000e-04     1     4     9     9
 2.8505280000e-04     1     4     9    10
 8.8316100000e-04     1     4     9    11
-6.3373813000e-03     1     4     9    12
-7.0832100000e-04     1     4     9    13
 1.5468569000e-03     1     4    10     1
-2.0543840000e-04     1     4    10     2
 4.6431300000e-05     1     4    10     3
 2.7890000000e-07     1     4    10     5
-1.2608400000e-05     1     4    10     6
-1.0648182000e-03     1     4    10     7
 4.1215340000e-04     1     4    10     8
-8.0291900000e-05     1     4    10     9
 3.4992020000e-04     1     4    10    10
 7.0587400000e-04     1     4    10    11
-5.0745864000e-03     1     4    10    12
-3.8949120000e-04     1     4    10    13
 5.4325385000e-03     1     4    11     1
-7.4897160000e-04     1     4    11     2
 2.2723520000e-04     1     4    11     3
-1.7579700000e-05     1     4    11     5
-4.1218900000e-05     1     4    11     6
 8.1985000000e-05     1     4    11     7
-3.0300000000e-08     1     4    11     8
-3.8319540000e-04     1     4    11     9
-8.4588100000e-04     1     4    11    10
 3.8610080000e-04     1     4    11    11
 4.3716710000e-04     1     4    11    12
-1.3391087000e-03     1     4    11    13
-3.9627401900e-02     1     4    12     1
 5.4774375000e-03     1     4    12     2
-1.6710524000e-03     1     4    12     3
 9.4238000000e-06     1     4    12     5
 2.9259780000e-04     1     4    12     6
-1.8764520000e-04     1     4    12     7
-2.9338620000e-04     1     4    12     8
 2.7980324000e-03     1     4    12     9
 6.1239941000e-03     1     4    12    10
-5.7683110000e-04     1     4    12    11
 3.9419480000e-04     1     4    12    12
-2.0821010000e-03     1     4    12    13
-4.4638657000e-03     1     4    13     1
 6.1154140000e-04     1     4    13     2
-1.9114100000e-04     1     4    13     3
 2.5415000000e-06     1     4    13     5
 4.5446700000e-05     1     4    13     6
 2.1563088000e-03     1     4    13     7
 1.2889235000e-03     1     4    13     8
 4.1367510000e-04     1     4    13     9
 5.4788620000e-04     1     4    13    10
 2.7223436000e-03     1     4    13    11
 3.0386194000e-03     1     4    13    12
 3.6824770000e-04     1     4    13    13
-4.3872000000e-06     1     5     2     1
-2.0226130000e-04     1     5     2     2
-1.9210000000e-07     1     5     2     3
 4.0430000000e-07     1     5     2     4
-3.1150800000e-05     1     5     2     6
 8.8483840000e-03     1     5     2     7
 2.3148322800e-02     1     5     2     8
 4.6288740000e-04     1     5     2     9
-2.2475170000e-04     1     5     2    10
 4.8142559000e-03     1     5     2    11
 6.6516050000e-04     1     5     2    12
-2.7340050000e-04     1     5     2    13
-5.2996000000e-06     1     5     3     1
-1.8854900000e-05     1     5     3     2
-2.5369380000e-04     1     5     3     3
-2.3770000000e-07     1     5     3     4
-1.0216800000e-05     1     5     3     6
 6.0231900000e-04     1     5     3     7
 1.5700051000e-03     1     5     3     8
 9.2525000000e-06     1     5     3     9
 1.5561763000e-03     1     5     3    10
-3.3388205100e-02     1     5     3    11
-4.5667845000e-03     1     5     3    12
 1.8156503000e-03     1     5     3    13
-6.8900000000e-08     1     5     4     1
 3.8000000000e-08     1     5     4     2
-1.1960000000e-07     1     5     4     3
-2.5544840000e-04     1     5     4     4
-8.6700000000e-08     1     5     4     6
 1.1118000000e-06     1     5     4     7
 2.0796500000e-05     1     5     4     8
-1.3050000000e-07     1     5     4     9
 1.0242040000e-04     1     5     4    10
-7.0795900000e-05     1     5     4    11
-4.1947089000e-03     1     5     4    12
 2.2501253700e-02     1     5     4    13
-1.0300209890e-01     1     5     5     1
 7.7674041200e-02     1     5     5     2
-4.0615103100e-02     1     5     5     3
-3.8900950000e-04     1     5     5     4
 2.5448713800e-02     1     5     5     6
 2.0988400000e-05     1     5     5     7
 1.8830370000e-04     1     5     5     8
-6.7577555000e-03     1     5     5     9
 1.6633939900e-02     1     5     5    10
 3.9164897000e-03     1     5     5    11
-2.8887460000e-04     1     5     5    12
 2.3437222100e-02     1     5     5    13
 3.5439400000e-05     1     5     6     1
 5.5370000000e-06     1     5     6     2
 1.1760000000e-07     1     5     6     3
-1.4800000000e-08     1     5     6     4
-2.6051390000e-04     1     5     6     6
 4.2889516000e-03     1     5     6     7
 1.1222494300e-02     1     5     6     8
 2.4655260000e-04     1     5     6     9
-2.0319880000e-04     1     5     6    10
 4.1966565000e-03     1     5     6    11
 5.7888180000e-04     1     5     6    12
-2.2976940000e-04     1     5     6    13
 2.1782489700e-02     1     5     7     1
-9.9113282000e-03     1     5     7     2
 8.1948000000e-04     1     5     7     3
-5.9387000000e-06     1     5     7     4
-4.3677356000e-03     1     5     7     6
-2.6982750000e-04     1     5     7     7
 2.4790700000e-05     1     5     7     8
-8.6439290000e-04     1     5     7     9
-7.5876510000e-04     1     5     7    10
-2.3354550000e-04     1     5     7    11
-8.4540600000e-04     1     5     7    12
 2.4979467000e-03     1     5     7    13
 5.6996321400e-02     1     5     8     1
-2.5936721300e-02     1     5     8     2
 2.1422144000e-03     1     5     8     3
 2.6363700000e-05     1     5     8     4
-1.1427110400e-02     1     5     8     6
-2.8091000000e-06     1     5     8     7
-2.1290320000e-04     1     5     8     8
-2.2625042000e-03     1     5     8     9
-2.0383841000e-03     1     5     8    10
-9.3570380000e-04     1     5     8    11
 4.7690390000e-04     1     5     8    12
-6.4084027000e-03     1     5     8    13
 1.1701196000e-03     1     5     9     1
-5.3482820000e-04     1     5     9     2
 5.8446200000e-05     1     5     9     3
 4.3830000000e-07     1     5     9     4
-2.3006030000e-04     1     5     9     6
 1.6390840000e-04     1     5     9     7
 4.3049540000e-04     1     5     9     8
-3.1129980000e-04     1     5     9     9
-3.7454910000e-04     1     5     9    10
 6.3649244000e-03     1     5     9    11
 8.9162300000e-04     1     5     9    12
-4.8626750000e-04     1     5     9    13
-1.7469381000e-03     1     5    10     1
 2.5801740000e-04     1     5    10     2
-6.0185300000e-05     1     5    10     3
-2.7890000000e-07     1     5    10     4
 1.2746100000e-05     1     5    10     6
 3.7383890000e-04     1     5    10     7
 9.8901170000e-04     1     5    10     8
 1.3422890000e-04     1     5    10     9
-2.1607300000e-04     1     5    10    10
 4.9033764000e-03     1     5    10    11
 6.7714360000e-04     1     5    10    12
-2.1110720000e-04     1     5    10    13
 3.9766998300e-02     1     5    11     1
-5.4926539000e-03     1     5    11     2
 1.6767680000e-03     1     5    11     3
 1.7579700000e-05     1     5    11     4
-2.9266020000e-04     1     5    11     6
 5.6625800000e-05     1     5    11     7
 2.6846930000e-04     1     5    11     8
-2.8070368000e-03     1     5    11     9
-5.9527553000e-03     1     5    11    10
-2.5409270000e-04     1     5    11    11
-1.1324500000e-05     1     5    11    12
-2.3225539000e-03     1     5    11    13
 5.4845276000e-03     1     5    12     1
-7.5885920000e-04     1     5    12     2
 2.3051100000e-04     1     5    12     3
-9.4238000000e-06     1     5    12     4
-4.1484800000e-05     1     5    12     6
 2.6304020000e-04     1     5    12     7
-8.8006000000e-05     1     5    12     8
-3.9018100000e-04     1     5    12     9
-8.2824020000e-04     1     5    12    10
-4.8404300000e-05     1     5    12    11
-1.0651950000e-04     1     5    12    12
 1.3671119000e-03     1     5    12    13
-2.2741303000e-03     1     5    13     1
 3.1296790000e-04     1     5    13     2
-9.7597600000e-05     1     5    13     3
-2.5415000000e-06     1     5    13     4