&FCI NORB= 13,NELEC=  2,MS2=0,
 ORBSYM=1,1,1,1,1,1,1,1,1,1,1,1,1
 ISYM=1,
&END
-7.7398486200e-02     1     1     2     2
 3.2922080500e-02     1     1     2     3
-4.8205010000e-04     1     1     2     4
-4.4625000000e-06     1     1     2     5
 3.1896000000e-06     1     1     2     6
 1.1810785000e-03     1     1     2     7
 1.6734950000e-03     1     1     2     8
-2.0719000000e-06     1     1     2     9
 1.8306000000e-06     1     1     2    10
-6.9475560000e-04     1     1     2    11
 7.1098000000e-05     1     1     2    12
 6.5276000000e-06     1     1     2    13
 3.2922080500e-02     1     1     3     2
 6.4274214100e-02     1     1     3     3
 3.5656900000e-04     1     1     3     4
 3.8062000000e-06     1     1     3     5
-2.0674000000e-06     1     1     3     6
 8.0068765900e-02     1     1     3     7
 1.4649886300e-02     1     1     3     8
-5.6190000000e-06     1     1     3     9
 7.1108000000e-06     1     1     3    10
-3.1897450000e-04     1     1     3    11
 3.2851800000e-05     1     1     3    12
 9.6470000000e-07     1     1     3    13
-4.8205010000e-04     1     1     4     2
 3.5656900000e-04     1     1     4     3
 8.5715320900e-02     1     1     4     4
-5.2309400000e-05     1     1     4     5
 3.8232000000e-05     1     1     4     6
-1.3095195900e-02     1     1     4     7
 7.1559064000e-02     1     1     4     8
 7.0891260000e-04     1     1     4     9
 1.1284160000e-04     1     1     4    10
 2.8994252000e-03     1     1     4    11
-3.1465410000e-04     1     1     4    12
-2.6111300000e-05     1     1     4    13
-4.4625000000e-06     1     1     5     2
 3.8062000000e-06     1     1     5     3
-5.2309400000e-05     1     1     5     4
 9.3363805500e-02     1     1     5     5
 4.9270000000e-07     1     1     5     6
-1.1768810000e-04     1     1     5     7
 6.4262620000e-04     1     1     5     8
-5.2770288700e-02     1     1     5     9
-4.5076469600e-02     1     1     5    10
-5.5502300000e-05     1     1     5    11
-1.4473290000e-04     1     1     5    12
-2.8599843000e-03     1     1     5    13
 3.1896000000e-06     1     1     6     2
-2.0674000000e-06     1     1     6     3
 3.8232000000e-05     1     1     6     4
 4.9270000000e-07     1     1     6     5
 9.3362115700e-02     1     1     6     6
 7.9879200000e-05     1     1     6     7
-3.9605840000e-04     1     1     6     8
 4.5076272600e-02     1     1     6     9
-5.2774584100e-02     1     1     6    10
-3.5664850000e-04     1     1     6    11
-2.8497597000e-03     1     1     6    12
 1.4972840000e-04     1     1     6    13
 1.1810785000e-03     1     1     7     2
 8.0068765900e-02     1     1     7     3
-1.3095195900e-02     1     1     7     4
-1.1768810000e-04     1     1     7     5
 7.9879200000e-05     1     1     7     6
 1.3368891600e-01     1     1     7     7
 3.2471346000e-03     1     1     7     8
-8.2663000000e-06     1     1     7     9
 2.0143000000e-06     1     1     7    10
 9.5081700000e-05     1     1     7    11
-1.1981600000e-05     1     1     7    12
-2.5659000000e-05     1     1     7    13
 1.6734950000e-03     1     1     8     2
 1.4649886300e-02     1     1     8     3
 7.1559064000e-02     1     1     8     4
 6.4262620000e-04     1     1     8     5
-3.9605840000e-04     1     1     8     6
 3.2471346000e-03     1     1     8     7
 1.2517036430e-01     1     1     8     8
 3.7862100000e-05     1     1     8     9
-1.6960000000e-06     1     1     8    10
 2.6607370000e-04     1     1     8    11
-3.3477600000e-05     1     1     8    12
 4.4751000000e-06     1     1     8    13
-2.0719000000e-06     1     1     9     2
-5.6190000000e-06     1     1     9     3
 7.0891260000e-04     1     1     9     4
-5.2770288700e-02     1     1     9     5
 4.5076272600e-02     1     1     9     6
-8.2663000000e-06     1     1     9     7
 3.7862100000e-05     1     1     9     8
 1.4484549050e-01     1     1     9     9
 2.8729000000e-06     1     1     9    10
-8.0975900000e-05     1     1     9    11
-9.2543790000e-04     1     1     9    12
 1.2000460000e-03     1     1     9    13
 1.8306000000e-06     1     1    10     2
 7.1108000000e-06     1     1    10     3
 1.1284160000e-04     1     1    10     4
-4.5076469600e-02     1     1    10     5
-5.2774584100e-02     1     1    10     6
 2.0143000000e-06     1     1    10     7
-1.6960000000e-06     1     1    10     8
 2.8729000000e-06     1     1    10     9
 1.4485511530e-01     1     1    10    10
 1.6394520000e-04     1     1    10    11
 1.1990120000e-03     1     1    10    12
 9.2183500000e-04     1     1    10    13
-6.9475560000e-04     1     1    11     2
-3.1897450000e-04     1     1    11     3
 2.8994252000e-03     1     1    11     4
-5.5502300000e-05     1     1    11     5
-3.5664850000e-04     1     1    11     6
 9.5081700000e-05     1     1    11     7
 2.6607370000e-04     1     1    11     8
-8.0975900000e-05     1     1    11     9
 1.6394520000e-04     1     1    11    10
 1.2536477770e-01     1     1    11    11
 8.2628200000e-05     1     1    11    12
 5.3230000000e-06     1     1    11    13
 7.1098000000e-05     1     1    12     2
 3.2851800000e-05     1     1    12     3
-3.1465410000e-04     1     1    12     4
-1.4473290000e-04     1     1    12     5
-2.8497597000e-03     1     1    12     6
-1.1981600000e-05     1     1    12     7
-3.3477600000e-05     1     1    12     8
-9.2543790000e-04     1     1    12     9
 1.1990120000e-03     1     1    12    10
 8.2628200000e-05     1     1    12    11
 1.2681078490e-01     1     1    12    12
-7.3340000000e-07     1     1    12    13
 6.5276000000e-06     1     1    13     2
 9.6470000000e-07     1     1    13     3
-2.6111300000e-05     1     1    13     4
-2.8599843000e-03     1     1    13     5
 1.4972840000e-04     1     1    13     6
-2.5659000000e-05     1     1    13     7
 4.4751000000e-06     1     1    13     8
 1.2000460000e-03     1     1    13     9
 9.2183500000e-04     1     1    13    10
 5.3230000000e-06     1     1    13    11
-7.3340000000e-07     1     1    13    12
 1.2682148740e-01     1     1    13    13
 7.7398486200e-02     1     2     2     1
-1.9286103100e-02     1     2     2     3
 2.7788348000e-03     1     2     2     4
 2.5665200000e-05     1     2     2     5
-1.8984900000e-05     1     2     2     6
 6.2702480000e-04     1     2     2     7
-1.2624298000e-03     1     2     2     8
 2.3269000000e-06     1     2     2     9
-2.5089000000e-06     1     2     2    10
 1.7463214000e-03     1     2     2    11
-1.7918810000e-04     1     2     2    12
-1.6529000000e-05     1     2     2    13
-3.2922080500e-02     1     2     3     1
-6.3706120600e-02     1     2     3     3
-1.5356543000e-03     1     2     3     4
-1.4035200000e-05     1     2     3     5
 1.0009200000e-05     1     2     3     6
-4.5559813700e-02     1     2     3     7
-5.8967898000e-03     1     2     3     8
 4.1700000000e-07     1     2     3     9
-5.4570000000e-07     1     2     3    10
-1.3447776000e-03     1     2     3    11
 1.3711880000e-04     1     2     3    12
 1.4563000000e-05     1     2     3    13
 4.8205010000e-04     1     2     4     1
-1.8642393000e-03     1     2     4     3
-8.4360881800e-02     1     2     4     4
 2.9188900000e-05     1     2     4     5
-2.1305900000e-05     1     2     4     6
 7.4144002000e-03     1     2     4     7
-4.0880784300e-02     1     2     4     8
-3.9437350000e-04     1     2     4     9
-6.5537300000e-05     1     2     4    10
 3.6569210000e-04     1     2     4    11
-3.9156300000e-05     1     2     4    12
 1.0916600000e-05     1     2     4    13
 4.4625000000e-06     1     2     5     1
-1.7087900000e-05     1     2     5     3
 2.8897300000e-05     1     2     5     4
-8.7237862500e-02     1     2     5     5
-2.9930000000e-07     1     2     5     6
 6.6468900000e-05     1     2     5     7
-3.6836250000e-04     1     2     5     8
 2.9514736600e-02     1     2     5     9
 2.5211587100e-02     1     2     5    10
 1.9370400000e-05     1     2     5    11
-1.0601400000e-05     1     2     5    12
-1.8174740000e-04     1     2     5    13
-3.1896000000e-06     1     2     6     1
 1.2338000000e-05     1     2     6     3
-2.1340300000e-05     1     2     6     4
-2.3200000000e-07     1     2     6     5
-8.7237235500e-02     1     2     6     6
-4.5152900000e-05     1     2     6     7
 2.2792690000e-04     1     2     6     8
-2.5211501700e-02     1     2     6     9
 2.9517402100e-02     1     2     6    10
 4.1093000000e-06     1     2     6    11
-1.8160750000e-04     1     2     6    12
 8.3895000000e-06     1     2     6    13
-1.1810785000e-03     1     2     7     1
-3.9175711500e-02     1     2     7     3
 5.5807620000e-03     1     2     7     4
 5.0004400000e-05     1     2     7     5
-3.3657600000e-05     1     2     7     6
-1.0521425580e-01     1     2     7     7
-2.9963567000e-03     1     2     7     8
 6.0579000000e-06     1     2     7     9
-2.5533000000e-06     1     2     7    10
 3.2914740000e-04     1     2     7    11
-3.1533800000e-05     1     2     7    12
 1.1187100000e-05     1     2     7    13
-1.6734950000e-03     1     2     8     1
-4.9411837000e-03     1     2     8     3
-3.1236220600e-02     1     2     8     4
-2.8167500000e-04     1     2     8     5
 1.7233170000e-04     1     2     8     6
-3.2569615000e-03     1     2     8     7
-1.0167289020e-01     1     2     8     8
-2.3604000000e-05     1     2     8     9
 2.0619000000e-06     1     2     8    10
-4.0568580000e-04     1     2     8    11
 4.4681200000e-05     1     2     8    12
-9.9300000000e-08     1     2     8    13
 2.0719000000e-06     1     2     9     1
 9.5700000000e-08     1     2     9     3
-3.1966570000e-04     1     2     9     4
 2.3761858100e-02     1     2     9     5
-2.0297273700e-02     1     2     9     6
 6.3807000000e-06     1     2     9     7
-2.3468300000e-05     1     2     9     8
-1.1221911830e-01     1     2     9     9
-1.8086000000e-06     1     2     9    10
 7.4748700000e-05     1     2     9    11
 8.3480050000e-04     1     2     9    12
-1.0840871000e-03     1     2     9    13
-1.8306000000e-06     1     2    10     1
-3.8300000000e-07     1     2    10     3
-5.1855100000e-05     1     2    10     4
 2.0297483200e-02     1     2    10     5
 2.3764090700e-02     1     2    10     6
-2.7310000000e-06     1     2    10     7
 2.4497000000e-06     1     2    10     8
-1.7343000000e-06     1     2    10     9
-1.1222427770e-01     1     2    10    10
-1.4073990000e-04     1     2    10    11
-1.0822036000e-03     1     2    10    12
-8.3293040000e-04     1     2    10    13
 6.9475560000e-04     1     2    11     1
-1.1385614000e-03     1     2    11     3
 3.1533420000e-04     1     2    11     4
 1.6379900000e-05     1     2    11     5
 5.4206000000e-06     1     2    11     6
 2.7078770000e-04     1     2    11     7
-5.9807150000e-04     1     2    11     8
 8.3408000000e-05     1     2    11     9
-1.5499780000e-04     1     2    11    10
-9.9414737200e-02     1     2    11    11
-9.1130700000e-05     1     2    11    12
-6.7634000000e-06     1     2    11    13
-7.1098000000e-05     1     2    12     1
 1.1617200000e-04     1     2    12     3
-3.3126800000e-05     1     2    12     4
-7.4938000000e-06     1     2    12     5
-1.2493990000e-04     1     2    12     6
-2.5674200000e-05     1     2    12     7
 6.4623900000e-05     1     2    12     8
 9.3324740000e-04     1     2    12     9
-1.2099508000e-03     1     2    12    10
-9.1465000000e-05     1     2    12    11
-1.0040968180e-01     1     2    12    12
 7.9510000000e-07     1     2    12    13
-6.5276000000e-06     1     2    13     1
 1.2180700000e-05     1     2    13     3
 6.4561000000e-06     1     2    13     4
-1.2545670000e-04     1     2    13     5
 5.7195000000e-06     1     2    13     6
 1.1170400000e-05     1     2    13     7
 2.6660000000e-06     1     2    13     8
-1.2125899000e-03     1     2    13     9
-9.3166500000e-04     1     2    13    10
-6.6969000000e-06     1     2    13    11
 7.7790000000e-07     1     2    13    12
-1.0042003110e-01     1     2    13    13
-3.2922080500e-02     1     3     2     1
 1.9286103100e-02     1     3     2     2
 3.2858500000e-04     1     3     2     4
 3.0527000000e-06     1     3     2     5
-2.3288000000e-06     1     3     2     6
-6.3841022000e-03     1     3     2     7
-9.5560610000e-04     1     3     2     8
 3.2130000000e-07     1     3     2     9
-1.6270000000e-07     1     3     2    10
-2.0621620000e-04     1     3     2    11
 2.0946800000e-05     1     3     2    12
 2.3823000000e-06     1     3     2    13
-6.4274214100e-02     1     3     3     1
 6.3706120600e-02     1     3     3     2
 1.3579646000e-03     1     3     3     4
 1.2190000000e-05     1     3     3     5
-9.5302000000e-06     1     3     3     6
-4.1880588800e-02     1     3     3     7
-8.5356360000e-03     1     3     3     8
 4.2824000000e-06     1     3     3     9
-5.1145000000e-06     1     3     3    10
 1.0402629000e-03     1     3     3    11
-1.0602170000e-04     1     3     3    12
-5.1801000000e-06     1     3     3    13
-3.5656900000e-04     1     3     4     1
 1.8642393000e-03     1     3     4     2
-6.4437436800e-02     1     3     4     4
 8.8353000000e-06     1     3     4     5
-6.4579000000e-06     1     3     4     6
 7.2488875000e-03     1     3     4     7
-4.2351196300e-02     1     3     4     8
-4.6193860000e-04     1     3     4     9
-7.1764500000e-05     1     3     4    10
-1.1319549000e-03     1     3     4    11
 1.2573790000e-04     1     3     4    12
 8.8888000000e-06     1     3     4    13
-3.8062000000e-06     1     3     5     1
 1.7087900000e-05     1     3     5     2
 9.1522000000e-06     1     3     5     4
-6.6587564300e-02     1     3     5     5
-1.1030000000e-07     1     3     5     6
 6.4586600000e-05     1     3     5     7
-3.7735490000e-04     1     3     5     8
 3.3823097100e-02     1     3     5     9
 2.8892322100e-02     1     3     5    10
 3.7184100000e-05     1     3     5    11
 7.3052500000e-05     1     3     5    12
 1.4559063000e-03     1     3     5    13
 2.0674000000e-06     1     3     6     1
-1.2338000000e-05     1     3     6     2
-6.5426000000e-06     1     3     6     4
-1.1580000000e-07     1     3     6     5
-6.6587046000e-02     1     3     6     6
-4.3258300000e-05     1     3     6     7
 2.2955770000e-04     1     3     6     8
-2.8890928000e-02     1     3     6     9
 3.3825642200e-02     1     3     6    10
 1.8626240000e-04     1     3     6    11
 1.4518708000e-03     1     3     6    12
-7.6370100000e-05     1     3     6    13
-8.0068765900e-02     1     3     7     1
 3.9175711500e-02     1     3     7     2
 2.6168333000e-03     1     3     7     4
 2.3521000000e-05     1     3     7     5
-1.5945300000e-05     1     3     7     6
-7.0356996500e-02     1     3     7     7
-9.4328080000e-04     1     3     7     8
 2.8360000000e-06     1     3     7     9
-6.7450000000e-07     1     3     7    10
-1.7712000000e-05     1     3     7    11
 2.6862000000e-06     1     3     7    12
 8.3078000000e-06     1     3     7    13
-1.4649886300e-02     1     3     8     1
 4.9411837000e-03     1     3     8     2
-1.3193056800e-02     1     3     8     4
-1.1770780000e-04     1     3     8     5
 7.2655300000e-05     1     3     8     6
-9.5454480000e-04     1     3     8     7
-6.9270055100e-02     1     3     8     8
-1.2034200000e-05     1     3     8     9
-3.9420000000e-07     1     3     8    10
-5.0396370000e-04     1     3     8    11
 5.3568200000e-05     1     3     8    12
 8.0163000000e-06     1     3     8    13
 5.6190000000e-06     1     3     9     1
-9.5700000000e-08     1     3     9     2
-1.2758420000e-04     1     3     9     4
 9.4883645000e-03     1     3     9     5
-8.1045393000e-03     1     3     9     6
 2.7638000000e-06     1     3     9     7
-1.1870600000e-05     1     3     9     8
-7.7001297400e-02     1     3     9     9
-8.8230000000e-07     1     3     9    10
 5.1208400000e-05     1     3     9    11
 5.6801120000e-04     1     3     9    12
-7.3812950000e-04     1     3     9    13
-7.1108000000e-06     1     3    10     1
 3.8300000000e-07     1     3    10     2
-2.0422400000e-05     1     3    10     4
 8.1042416000e-03     1     3    10     5
 9.4894123000e-03     1     3    10     6
-5.5980000000e-07     1     3    10     7
-4.2660000000e-07     1     3    10     8
-6.1460000000e-07     1     3    10     9
-7.7006277900e-02     1     3    10    10
-1.0446070000e-04     1     3    10    11
-7.3588120000e-04     1     3    10    12
-5.6670750000e-04     1     3    10    13
 3.1897450000e-04     1     3    11     1
 1.1385614000e-03     1     3    11     2
-2.5080900000e-04     1     3    11     4
 7.9510000000e-06     1     3    11     5
 3.4519700000e-05     1     3    11     6
 1.4224800000e-05     1     3    11     7
-5.5947610000e-04     1     3    11     8
 5.0825800000e-05     1     3    11     9
-1.0311460000e-04     1     3    11    10
-5.9545275600e-02     1     3    11    11
-2.8541900000e-05     1     3    11    12
-1.1913000000e-06     1     3    11    13
-3.2851800000e-05     1     3    12     1
-1.1617200000e-04     1     3    12     2
 2.6945500000e-05     1     3    12     4
 1.2120000000e-05     1     3    12     5
 2.4274100000e-04     1     3    12     6
-7.8880000000e-07     1     3    12     7
 5.9345300000e-05     1     3    12     8
 5.6457340000e-04     1     3    12     9
-7.3147430000e-04     1     3    12    10
-2.8786100000e-05     1     3    12    11
-6.0231479700e-02     1     3    12    12
 2.2840000000e-07     1     3    12    13
-9.6470000000e-07     1     3    13     1
-1.2180700000e-05     1     3    13     2
 5.4449000000e-06     1     3    13     4
 2.4411870000e-04     1     3    13     5
-1.2954400000e-05     1     3    13     6
 6.4438000000e-06     1     3    13     7
 8.2581000000e-06     1     3    13     8
-7.3370220000e-04     1     3    13     9
-5.6334560000e-04     1     3    13    10
-1.6162000000e-06     1     3    13    11
 2.5660000000e-07     1     3    13    12
-6.0237308200e-02     1     3    13    13
 4.8205010000e-04     1     4     2     1
-2.7788348000e-03     1     4     2     2
-3.2858500000e-04     1     4     2     3
 2.9160000000e-07     1     4     2     5
 3.4400000000e-08     1     4     2     6
 1.8336382000e-03     1     4     2     7
-9.6445637000e-03     1     4     2     8
-7.4707800000e-05     1     4     2     9
-1.3682200000e-05     1     4     2    10
 5.0357900000e-05     1     4     2    11
-6.0295000000e-06     1     4     2    12
 4.4605000000e-06     1     4     2    13
-3.5656900000e-04     1     4     3     1
 1.5356543000e-03     1     4     3     2
-1.3579646000e-03     1     4     3     3
-3.1690000000e-07     1     4     3     5
 8.4700000000e-08     1     4     3     6
 4.6320542000e-03     1     4     3     7
-2.9158139500e-02     1     4     3     8
-3.3435440000e-04     1     4     3     9
-5.1342100000e-05     1     4     3    10
-8.8114590000e-04     1     4     3    11
 9.8792400000e-05     1     4     3    12
 3.4439000000e-06     1     4     3    13
-8.5715320900e-02     1     4     4     1
 8.4360881800e-02     1     4     4     2
 6.4437436800e-02     1     4     4     3
 1.9440500000e-05     1     4     4     5
-1.4494700000e-05     1     4     4     6
 1.7769398200e-02     1     4     4     7
 2.4984541000e-03     1     4     4     8
 1.1947000000e-05     1     4     4     9
 3.1094900000e-05     1     4     4    10
-3.5516762200e-02     1     4     4    11
 4.0667172000e-03     1     4     4    12
-2.4113630000e-04     1     4     4    13
 5.2309400000e-05     1     4     5     1
-2.8897300000e-05     1     4     5     2
-9.1522000000e-06     1     4     5     3
-1.9919811000e-03     1     4     5     5
-4.0000000000e-09     1     4     5     6
-1.1811000000e-05     1     4     5     7
 1.5444900000e-05     1     4     5     8
-5.0129310000e-04     1     4     5     9
-4.2661960000e-04     1     4     5    10
 6.2899000000e-05     1     4     5    11
 1.7092461000e-03     1     4     5    12
 3.2873620500e-02     1     4     5    13
-3.8232000000e-05     1     4     6     1
 2.1340300000e-05     1     4     6     2
 6.5426000000e-06     1     4     6     3
-7.0000000000e-10     1     4     6     5
-1.9920055000e-03     1     4     6     6
 8.6671000000e-06     1     4     6     7
-4.2494000000e-06     1     4     6     8
 4.2857200000e-04     1     4     6     9
-5.0337000000e-04     1     4     6    10
 3.7188259000e-03     1     4     6    11
 3.2772484200e-02     1     4     6    12
-1.7039432000e-03     1     4     6    13
 1.3095195900e-02     1     4     7     1
-5.5807620000e-03     1     4     7     2
-2.6168333000e-03     1     4     7     3
 2.3090000000e-07     1     4     7     5
-1.7160000000e-07     1     4     7     6
-5.3620104000e-03     1     4     7     7
-2.7103333000e-03     1     4     7     8
-6.6077000000e-05     1     4     7     9
-1.0172700000e-05     1     4     7    10
 1.5063298000e-03     1     4     7    11
-1.6869770000e-04     1     4     7    12
 2.7930000000e-07     1     4     7    13
-7.1559064000e-02     1     4     8     1
 3.1236220600e-02     1     4     8     2
 1.3193056800e-02     1     4     8     3
 2.7770000000e-07     1     4     8     5
-5.4000000000e-08     1     4     8     6
 1.9272411600e-02     1     4     8     7
 6.8910170000e-04     1     4     8     8
-5.1553000000e-06     1     4     8     9
 7.8736000000e-06     1     4     8    10
-8.3538513000e-03     1     4     8    11
 9.4553740000e-04     1     4     8    12
-4.7421000000e-06     1     4     8    13
-7.0891260000e-04     1     4     9     1
 3.1966570000e-04     1     4     9     2
 1.2758420000e-04     1     4     9     3
-5.5712000000e-06     1     4     9     5
 4.7917000000e-06     1     4     9     6
 1.6941330000e-04     1     4     9     7
 3.0860500000e-05     1     4     9     8
-2.4341837000e-03     1     4     9     9
-1.4900000000e-08     1     4     9    10
 2.8193980000e-04     1     4     9    11
 2.9842476000e-03     1     4     9    12
-3.8893058000e-03     1     4     9    13
-1.1284160000e-04     1     4    10     1
 5.1855100000e-05     1     4    10     2
 2.0422400000e-05     1     4    10     3
-4.7084000000e-06     1     4    10     5
-5.6769000000e-06     1     4    10     6
 2.8906100000e-05     1     4    10     7
-5.8400000000e-08     1     4    10     8
 6.4160000000e-07     1     4    10     9
-2.4342188000e-03     1     4    10    10
-4.2700350000e-04     1     4    10    11
-3.8776579000e-03     1     4    10    12
-2.9859559000e-03     1     4    10    13
-2.8994252000e-03     1     4    11     1
-3.1533420000e-04     1     4    11     2
 2.5080900000e-04     1     4    11     3
 1.7331200000e-05     1     4    11     5
 9.5163200000e-05     1     4    11     6
-4.0729770000e-04     1     4    11     7
 5.0339128000e-03     1     4    11     8
-4.4803330000e-04     1     4    11     9
 6.4594390000e-04     1     4    11    10
-2.1607649000e-03     1     4    11    11
 3.4845500000e-05     1     4    11    12
-4.0763000000e-06     1     4    11    13
 3.1465410000e-04     1     4    12     1
 3.3126800000e-05     1     4    12     2
-2.6945500000e-05     1     4    12     3
 4.7641700000e-05     1     4    12     5
 9.5900860000e-04     1     4    12     6
 4.0432500000e-05     1     4    12     7
-5.3029510000e-04     1     4    12     8
-4.3678554000e-03     1     4    12     9
 5.6752326000e-03     1     4    12    10
 3.8618100000e-05     1     4    12    11
-1.8951758000e-03     1     4    12    12
 2.2090000000e-07     1     4    12    13
 2.6111300000e-05     1     4    13     1
-6.4561000000e-06     1     4    13     2
-5.4449000000e-06     1     4    13     3
 9.6172250000e-04     1     4    13     5
-4.9168200000e-05     1     4    13     6
-4.5470000000e-07     1     4    13     7
-2.6154500000e-05     1     4    13     8
 5.6928018000e-03     1     4    13     9
 4.3759524000e-03     1     4    13    10
 1.2186000000e-05     1     4    13    11
-1.1361000000e-06     1     4    13    12
-1.8935707000e-03     1     4    13    13
 4.4625000000e-06     1     5     2     1
-2.5665200000e-05     1     5     2     2
-3.0527000000e-06     1     5     2     3
-2.9160000000e-07     1     5     2     4
-6.7300000000e-08     1     5     2     6
 1.6464500000e-05     1     5     2     7
-8.6687500000e-05     1     5     2     8
 5.7528785000e-03     1     5     2     9
 4.9141039000e-03     1     5     2    10
 2.9905000000e-06     1     5     2    11
-3.1076000000e-06     1     5     2    12
-5.6290700000e-05     1     5     2    13
-3.8062000000e-06     1     5     3     1
 1.4035200000e-05     1     5     3     2
-1.2190000000e-05     1     5     3     3
 3.1690000000e-07     1     5     3     4
 5.5000000000e-09     1     5     3     6
 4.1065600000e-05     1     5     3     7
-2.5964710000e-04     1     5     3     8
 2.4334732600e-02     1     5     3     9
 2.0788080500e-02     1     5     3    10
 2.9233100000e-05     1     5     3    11
 6.0932500000e-05     1     5     3    12
 1.2117876000e-03     1     5     3    13
 5.2309400000e-05     1     5     4     1
-2.9188900000e-05     1     5     4     2
-8.8353000000e-06     1     5     4     3
-1.9440500000e-05     1     5     4     4
-3.3000000000e-09     1     5     4     6
-1.2041900000e-05     1     5     4     7
 1.5167200000e-05     1     5     4     8
-4.9572190000e-04     1     5     4     9
-4.2191120000e-04     1     5     4    10
 4.5567800000e-05     1     5     4    11
 1.6616044000e-03     1     5     4    12
 3.1911898000e-02     1     5     4    13
-9.3363805500e-02     1     5     5     1
 8.7237862500e-02     1     5     5     2
 6.6587564300e-02     1     5     5     3
 1.9919811000e-03     1     5     5     4
-1.3711200000e-05     1     5     5     6
 1.9339804500e-02     1     5     5     7
 2.2221338000e-03     1     5     5     8
-6.3523000000e-06     1     5     5     9
-2.4217900000e-05     1     5     5    10
 1.9024520100e-02     1     5     5    11
-1.6023411000e-03     1     5     5    12
 2.5041653000e-03     1     5     5    13
-4.9270000000e-07     1     5     6     1
 2.3200000000e-07     1     5     6     2
 1.1580000000e-07     1     5     6     3
 7.0000000000e-10     1     5     6     4
-1.8330700000e-05     1     5     6     6
 1.0290000000e-07     1     5     6     7
 4.0388000000e-06     1     5     6     8
 4.4767000000e-06     1     5     6     9
 6.1174000000e-06     1     5     6    10
 9.0533500000e-04     1     5     6    11
 7.4300520000e-04     1     5     6    12
-1.4774097000e-03     1     5     6    13
 1.1768810000e-04     1     5     7     1
-5.0004400000e-05     1     5     7     2
-2.3521000000e-05     1     5     7     3
-2.3090000000e-07     1     5     7     4
 5.9000000000e-09     1     5     7     6
-4.8417300000e-05     1     5     7     7
-2.3916200000e-05     1     5     7     8
 4.7174716000e-03     1     5     7     9
 4.0314171000e-03     1     5     7    10
-2.9037000000e-06     1     5     7    11
-6.4581400000e-05     1     5     7    12
-1.2494070000e-03     1     5     7    13
-6.4262620000e-04     1     5     8     1
 2.8167500000e-04     1     5     8     2
 1.1770780000e-04     1     5     8     3
-2.7770000000e-07     1     5     8     4
 3.3000000000e-09     1     5     8     6
 1.7172730000e-04     1     5     8     7
 3.5069000000e-06     1     5     8     8
 5.1470900000e-04     1     5     8     9
 4.4181200000e-04     1     5     8    10
 6.1469200000e-05     1     5     8    11
 4.0249130000e-04     1     5     8    12
 7.8423465000e-03     1     5     8    13
 5.2770288700e-02     1     5     9     1
-2.3761858100e-02     1     5     9     2
-9.4883645000e-03     1     5     9     3
 5.5712000000e-06     1     5     9     4
 4.4100000000e-08     1     5     9     6
-1.2498004000e-02     1     5     9     7
-2.1877814000e-03     1     5     9     8
-2.0561400000e-05     1     5     9     9
 1.5028000000e-06     1     5     9    10
-2.5068879000e-03     1     5     9    11
 3.0498760000e-04     1     5     9    12
-4.7167960000e-04     1     5     9    13
 4.5076469600e-02     1     5    10     1
-2.0297483200e-02     1     5    10     2
-8.1042416000e-03     1     5    10     3
 4.7084000000e-06     1     5    10     4
-1.0620000000e-07     1     5    10     6
-1.0674825700e-02     1     5    10     7
-1.8692010000e-03     1     5    10     8
-2.6576000000e-06     1     5    10     9
-2.2889700000e-05     1     5    10    10
-2.3392388000e-03     1     5    10    11
 9.9148700000e-05     1     5    10    12
-1.0924930000e-04     1     5    10    13
 5.5502300000e-05     1     5    11     1
-1.6379900000e-05     1     5    11     2
-7.9510000000e-06     1     5    11     3
-1.7331200000e-05     1     5    11     4
 1.0866000000e-06     1     5    11     6
-7.7216000000e-06     1     5    11     7
-1.8061500000e-05     1     5    11     8
 2.3570984000e-03     1     5    11     9
 2.2620194000e-03     1     5    11    10
-1.6941600000e-05     1     5    11    11
 3.1450800000e-05     1     5    11    12
 4.0755160000e-04     1     5    11    13
 1.4473290000e-04     1     5    12     1
 7.4938000000e-06     1     5    12     2
-1.2120000000e-05     1     5    12     3
-4.7641700000e-05     1     5    12     4
 1.0057500000e-05     1     5    12     6
 1.6301000000e-05     1     5    12     7
-2.3291810000e-04     1     5    12     8
-3.0784900000e-04     1     5    12     9
-5.6085000000e-05     1     5    12    10
-2.0182800000e-05     1     5    12    11
-1.4599100000e-05     1     5    12    12
-3.2788200000e-05     1     5    12    13
 2.8599843000e-03     1     5    13     1
 1.2545670000e-04     1     5    13     2
-2.4411870000e-04     1     5    13     3
-9.6172250000e-04     1     5    13     4