&FCI NORB= 13,NELEC=  2,MS2=0,
 ORBSYM=1,1,1,1,1,1,1,1,1,1,1,1,1
 ISYM=1,
&END
 1.3670616660e-01     1     1     2     2
 1.0269000000e-06     1     1     2     3
-1.3031000000e-06     1     1     2     4
 2.8173217000e-03     1     1     2     5
 1.0140660340e-01     1     1     2     6
-3.0424840000e-04     1     1     2     7
-4.8424900000e-05     1     1     2     8
-2.2848118600e-02     1     1     2     9
 8.1227020000e-04     1     1     2    10
-6.8175900000e-05     1     1     2    11
 4.1685100000e-05     1     1     2    12
-8.7202000000e-05     1     1     2    13
 1.0269000000e-06     1     1     3     2
 1.7064493420e-01     1     1     3     3
-1.9200000000e-08     1     1     3     4
 1.4985500000e-05     1     1     3     5
-9.3389400000e-05     1     1     3     6
-1.9185617400e-02     1     1     3     7
-7.9959016700e-02     1     1     3     8
 5.7725200000e-05     1     1     3     9
 3.5742900000e-05     1     1     3    10
 2.9068800000e-04     1     1     3    11
 2.9623241200e-02     1     1     3    12
 2.4641952000e-03     1     1     3    13
-1.3031000000e-06     1     1     4     2
-1.9200000000e-08     1     1     4     3
 1.7063837540e-01     1     1     4     4
-2.0008600000e-05     1     1     4     5
-2.3339370000e-04     1     1     4     6
-7.9960761200e-02     1     1     4     7
 1.9185606500e-02     1     1     4     8
-1.0890520000e-04     1     1     4     9
 1.4910540000e-04     1     1     4    10
 8.3144600000e-05     1     1     4    11
-2.4660770000e-03     1     1     4    12
 2.9620920000e-02     1     1     4    13
 2.8173217000e-03     1     1     5     2
 1.4985500000e-05     1     1     5     3
-2.0008600000e-05     1     1     5     4
 2.0241773660e-01     1     1     5     5
 1.7865677600e-02     1     1     5     6
-6.1344000000e-05     1     1     5     7
 6.7212000000e-06     1     1     5     8
 8.0059127100e-02     1     1     5     9
-2.8118990000e-03     1     1     5    10
 3.0125710000e-04     1     1     5    11
-1.5044550000e-04     1     1     5    12
 2.4757970000e-04     1     1     5    13
 1.0140660340e-01     1     1     6     2
-9.3389400000e-05     1     1     6     3
-2.3339370000e-04     1     1     6     4
 1.7865677600e-02     1     1     6     5
 2.4634411290e-01     1     1     6     6
-1.3580900000e-05     1     1     6     7
-6.5345000000e-06     1     1     6     8
-1.6523859000e-03     1     1     6     9
 4.3231200000e-05     1     1     6    10
-2.2844400000e-05     1     1     6    11
-7.3811000000e-06     1     1     6    12
 6.3813000000e-06     1     1     6    13
-3.0424840000e-04     1     1     7     2
-1.9185617400e-02     1     1     7     3
-7.9960761200e-02     1     1     7     4
-6.1344000000e-05     1     1     7     5
-1.3580900000e-05     1     1     7     6
 2.4853747850e-01     1     1     7     7
 8.0700000000e-08     1     1     7     8
 5.2747000000e-06     1     1     7     9
-6.6442000000e-06     1     1     7    10
-1.1002200000e-05     1     1     7    11
-3.3878910000e-04     1     1     7    12
-2.2071005000e-03     1     1     7    13
-4.8424900000e-05     1     1     8     2
-7.9959016700e-02     1     1     8     3
 1.9185606500e-02     1     1     8     4
 6.7212000000e-06     1     1     8     5
-6.5345000000e-06     1     1     8     6
 8.0700000000e-08     1     1     8     7
 2.4854694420e-01     1     1     8     8
 3.3504000000e-06     1     1     8     9
 7.5400000000e-08     1     1     8    10
-1.3343600000e-05     1     1     8    11
-2.2079781000e-03     1     1     8    12
 3.3929050000e-04     1     1     8    13
-2.2848118600e-02     1     1     9     2
 5.7725200000e-05     1     1     9     3
-1.0890520000e-04     1     1     9     4
 8.0059127100e-02     1     1     9     5
-1.6523859000e-03     1     1     9     6
 5.2747000000e-06     1     1     9     7
 3.3504000000e-06     1     1     9     8
 2.5086532070e-01     1     1     9     9
-6.3544450000e-04     1     1     9    10
 6.0808300000e-05     1     1     9    11
-2.1175000000e-05     1     1     9    12
 3.8596000000e-05     1     1     9    13
 8.1227020000e-04     1     1    10     2
 3.5742900000e-05     1     1    10     3
 1.4910540000e-04     1     1    10     4
-2.8118990000e-03     1     1    10     5
 4.3231200000e-05     1     1    10     6
-6.6442000000e-06     1     1    10     7
 7.5400000000e-08     1     1    10     8
-6.3544450000e-04     1     1    10     9
 2.2080986840e-01     1     1    10    10
 2.1980000000e-07     1     1    10    11
 7.3832000000e-06     1     1    10    12
 3.4662500000e-05     1     1    10    13
-6.8175900000e-05     1     1    11     2
 2.9068800000e-04     1     1    11     3
 8.3144600000e-05     1     1    11     4
 3.0125710000e-04     1     1    11     5
-2.2844400000e-05     1     1    11     6
-1.1002200000e-05     1     1    11     7
-1.3343600000e-05     1     1    11     8
 6.0808300000e-05     1     1    11     9
 2.1980000000e-07     1     1    11    10
 2.2077753300e-01     1     1    11    11
 6.6218800000e-05     1     1    11    12
 2.4457800000e-05     1     1    11    13
 4.1685100000e-05     1     1    12     2
 2.9623241200e-02     1     1    12     3
-2.4660770000e-03     1     1    12     4
-1.5044550000e-04     1     1    12     5
-7.3811000000e-06     1     1    12     6
-3.3878910000e-04     1     1    12     7
-2.2079781000e-03     1     1    12     8
-2.1175000000e-05     1     1    12     9
 7.3832000000e-06     1     1    12    10
 6.6218800000e-05     1     1    12    11
 2.3275545660e-01     1     1    12    12
-4.1190000000e-07     1     1    12    13
-8.7202000000e-05     1     1    13     2
 2.4641952000e-03     1     1    13     3
 2.9620920000e-02     1     1    13     4
 2.4757970000e-04     1     1    13     5
 6.3813000000e-06     1     1    13     6
-2.2071005000e-03     1     1    13     7
 3.3929050000e-04     1     1    13     8
 3.8596000000e-05     1     1    13     9
 3.4662500000e-05     1     1    13    10
 2.4457800000e-05     1     1    13    11
-4.1190000000e-07     1     1    13    12
 2.3276131490e-01     1     1    13    13
-1.3670616660e-01     1     2     2     1
-4.4162000000e-06     1     2     2     3
 6.2506000000e-06     1     2     2     4
-5.1827619000e-03     1     2     2     5
-6.1259160500e-02     1     2     2     6
 1.8568470000e-04     1     2     2     7
 2.8851000000e-05     1     2     2     8
 1.5621730400e-02     1     2     2     9
-5.4871470000e-04     1     2     2    10
 4.4727100000e-05     1     2     2    11
-3.0253500000e-05     1     2     2    12
 6.1586500000e-05     1     2     2    13
-1.0269000000e-06     1     2     3     1
-1.0261449060e-01     1     2     3     3
 1.3620000000e-07     1     2     3     4
-3.5940000000e-07     1     2     3     5
 6.4309000000e-05     1     2     3     6
 1.3035072100e-02     1     2     3     7
 5.4326262800e-02     1     2     3     8
-3.3782800000e-05     1     2     3     9
-2.0715000000e-05     1     2     3    10
-1.6705490000e-04     1     2     3    11
-1.7321986800e-02     1     2     3    12
-1.4405895000e-03     1     2     3    13
 1.3031000000e-06     1     2     4     1
-1.3320000000e-07     1     2     4     3
-1.0261213810e-01     1     2     4     4
 4.3010000000e-07     1     2     4     5
 1.5581070000e-04     1     2     4     6
 5.4326962000e-02     1     2     4     7
-1.3035273300e-02     1     2     4     8
 6.3485800000e-05     1     2     4     9
-8.5161500000e-05     1     2     4    10
-4.8720100000e-05     1     2     4    11
 1.4417925000e-03     1     2     4    12
-1.7320352800e-02     1     2     4    13
-2.8173217000e-03     1     2     5     1
-1.1269000000e-06     1     2     5     3
 1.4549000000e-06     1     2     5     4
-1.0918527990e-01     1     2     5     5
-1.0001336100e-02     1     2     5     6
 3.6992300000e-05     1     2     5     7
-7.2493000000e-06     1     2     5     8
-5.2600784500e-02     1     2     5     9
 1.8215539000e-03     1     2     5    10
-1.9819060000e-04     1     2     5    11
 9.4763400000e-05     1     2     5    12
-1.5635500000e-04     1     2     5    13
-1.0140660340e-01     1     2     6     1
 1.4245800000e-05     1     2     6     3
 3.7818800000e-05     1     2     6     4
-2.5887941000e-03     1     2     6     5
-1.1752307920e-01     1     2     6     6
 1.3497000000e-05     1     2     6     7
 3.6447000000e-06     1     2     6     8
 1.9275697000e-03     1     2     6     9
-6.2645100000e-05     1     2     6    10
 1.5517600000e-05     1     2     6    11
 4.1957000000e-06     1     2     6    12
 6.3973000000e-06     1     2     6    13
 3.0424840000e-04     1     2     7     1
 3.0316164000e-03     1     2     7     3
 1.2643626200e-02     1     2     7     4
 5.7743000000e-06     1     2     7     5
 1.3124600000e-05     1     2     7     6
-1.1748274450e-01     1     2     7     7
 7.2160000000e-07     1     2     7     8
-1.2027900000e-05     1     2     7     9
 1.4215500000e-05     1     2     7    10
 1.5602200000e-05     1     2     7    11
 4.9919970000e-04     1     2     7    12
 3.2491801000e-03     1     2     7    13
 4.8424900000e-05     1     2     8     1
 1.2642394900e-02     1     2     8     3
-3.0318679000e-03     1     2     8     4
 2.7179000000e-06     1     2     8     5
 4.2801000000e-06     1     2     8     6
-9.2770000000e-07     1     2     8     7
-1.1748815490e-01     1     2     8     8
 2.1687000000e-06     1     2     8     9
-4.6900000000e-08     1     2     8    10
 2.5824700000e-05     1     2     8    11
 3.2498748000e-03     1     2     8    12
-4.9953250000e-04     1     2     8    13
 2.2848118600e-02     1     2     9     1
-1.1014500000e-05     1     2     9     3
 1.8636100000e-05     1     2     9     4
-1.5500479600e-02     1     2     9     5
 2.4426470000e-04     1     2     9     6
-3.5556000000e-06     1     2     9     7
 3.8760000000e-07     1     2     9     8
-1.2149058780e-01     1     2     9     9
 5.7995070000e-04     1     2     9    10
-5.7732400000e-05     1     2     9    11
 2.1213000000e-05     1     2     9    12
-3.7010700000e-05     1     2     9    13
-8.1227020000e-04     1     2    10     1
-4.3529000000e-06     1     2    10     3
-1.8558600000e-05     1     2    10     4
 5.3473000000e-04     1     2    10     5
-4.2382000000e-06     1     2    10     6
 6.2210000000e-06     1     2    10     7
-1.8270000000e-07     1     2    10     8
 5.7778560000e-04     1     2    10     9
-9.8455337800e-02     1     2    10    10
 1.7913000000e-06     1     2    10    11
-5.8930000000e-06     1     2    10    12
-2.6755000000e-05     1     2    10    13
 6.8175900000e-05     1     2    11     1
-3.5856200000e-05     1     2    11     3
-1.0770900000e-05     1     2    11     4
-5.7075200000e-05     1     2    11     5
 1.0858400000e-05     1     2    11     6
 8.5702000000e-06     1     2    11     7
 1.2115900000e-05     1     2    11     8
-5.7524300000e-05     1     2    11     9
 1.7835000000e-06     1     2    11    10
-9.8432253800e-02     1     2    11    11
-5.1741200000e-05     1     2    11    12
-1.9309200000e-05     1     2    11    13
-4.1685100000e-05     1     2    12     1
-3.7137753000e-03     1     2    12     3
 3.0885460000e-04     1     2    12     4
 2.6572900000e-05     1     2    12     5
 6.8634000000e-06     1     2    12     6
 2.6430320000e-04     1     2    12     7
 1.7211931000e-03     1     2    12     8
 2.0402000000e-05     1     2    12     9
-5.9338000000e-06     1     2    12    10
-5.2230600000e-05     1     2    12    11
-1.0652750890e-01     1     2    12    12
 2.4680000000e-07     1     2    12    13
 8.7202000000e-05     1     2    13     1
-3.0858980000e-04     1     2    13     3
-3.7135729000e-03     1     2    13     4
-4.5103500000e-05     1     2    13     5
-5.5156000000e-06     1     2    13     6
 1.7202871000e-03     1     2    13     7
-2.6451550000e-04     1     2    13     8
-3.6319700000e-05     1     2    13     9
-2.6971100000e-05     1     2    13    10
-1.9170800000e-05     1     2    13    11
 4.0530000000e-07     1     2    13    12
-1.0653055980e-01     1     2    13    13
-1.0269000000e-06     1     3     2     1
 4.4162000000e-06     1     3     2     2
 2.6940000000e-07     1     3     2     4
 7.6750000000e-07     1     3     2     5
 5.0063200000e-05     1     3     2     6
 1.0003455700e-02     1     3     2     7
 4.1683867900e-02     1     3     2     8
-2.2768300000e-05     1     3     2     9
-1.6362100000e-05     1     3     2    10
-1.3119870000e-04     1     3     2    11
-1.3608211500e-02     1     3     2    12
-1.1319997000e-03     1     3     2    13
-1.7064493420e-01     1     3     3     1
 1.0261449060e-01     1     3     3     2
 5.3376000000e-06     1     3     3     4
-4.1926011000e-03     1     3     3     5
 2.0204022000e-02     1     3     3     6
-6.4386600000e-05     1     3     3     7
 1.5954500000e-05     1     3     3     8
-1.1874435300e-02     1     3     3     9
 2.5127492600e-02     1     3     3    10
 3.2925736400e-02     1     3     3    11
-2.4429010000e-04     1     3     3    12
-3.0967820000e-04     1     3     3    13
 1.9200000000e-08     1     3     4     1
 1.3320000000e-07     1     3     4     2
 3.6615000000e-06     1     3     4     4
-9.1000000000e-09     1     3     4     5
 1.3020000000e-07     1     3     4     6
 3.6236000000e-06     1     3     4     7
-1.7303100000e-05     1     3     4     8
 1.2631324000e-03     1     3     4     9
 3.3430131800e-02     1     3     4    10
-2.5096014300e-02     1     3     4    11
 1.6149940000e-04     1     3     4    12
-5.7960100000e-05     1     3     4    13
-1.4985500000e-05     1     3     5     1
 1.1269000000e-06     1     3     5     2
-1.1200000000e-08     1     3     5     4
 6.8586000000e-06     1     3     5     5
 2.9714600000e-05     1     3     5     6
 3.3981850000e-03     1     3     5     7
 1.4159212500e-02     1     3     5     8
 1.1078010000e-04     1     3     5     9
 7.5318500000e-05     1     3     5    10
 3.6712010000e-04     1     3     5    11
 4.2421535200e-02     1     3     5    12
 3.5315332000e-03     1     3     5    13
 9.3389400000e-05     1     3     6     1
-1.4245800000e-05     1     3     6     2
-1.7210000000e-07     1     3     6     4
-9.8670000000e-07     1     3     6     5
-1.2768900000e-05     1     3     6     6
 1.9233974000e-03     1     3     6     7
 8.0110793000e-03     1     3     6     8
-1.2355300000e-05     1     3     6     9
-2.4190200000e-05     1     3     6    10
-1.6624500000e-05     1     3     6    11
-2.5056911000e-03     1     3     6    12
-2.0790720000e-04     1     3     6    13
 1.9185617400e-02     1     3     7     1
-3.0316164000e-03     1     3     7     2
-8.6830000000e-07     1     3     7     4
-6.7872600000e-05     1     3     7     5
-4.4554273000e-03     1     3     7     6
 1.3243200000e-05     1     3     7     7
-2.1244100000e-05     1     3     7     8
-3.5497640000e-04     1     3     7     9
-6.4877900000e-03     1     3     7    10
 2.5963237000e-03     1     3     7    11
-1.2798100000e-05     1     3     7    12
 2.5593300000e-05     1     3     7    13
 7.9959016700e-02     1     3     8     1
-1.2642394900e-02     1     3     8     2
-7.6780000000e-07     1     3     8     4
-2.8503580000e-04     1     3     8     5
-1.8569821000e-02     1     3     8     6
 5.3098700000e-05     1     3     8     7
 1.7797400000e-05     1     3     8     8
-2.4225230000e-04     1     3     8     9
-3.1351123000e-03     1     3     8    10
-6.8425524000e-03     1     3     8    11
 5.4667800000e-05     1     3     8    12
 6.8863300000e-05     1     3     8    13
-5.7725200000e-05     1     3     9     1
 1.1014500000e-05     1     3     9     2
 2.9900000000e-08     1     3     9     4
 3.1829000000e-06     1     3     9     5
-1.8655000000e-06     1     3     9     6
-7.2447570000e-04     1     3     9     7
-3.9398961000e-03     1     3     9     8
-9.9246000000e-06     1     3     9     9
 3.0766000000e-06     1     3     9    10
 2.9035100000e-05     1     3     9    11
 3.7457529000e-03     1     3     9    12
 2.6950300000e-04     1     3     9    13
-3.5742900000e-05     1     3    10     1
 4.3529000000e-06     1     3    10     2
-4.6960000000e-07     1     3    10     4
 2.4948000000e-06     1     3    10     5
 2.7392500000e-05     1     3    10     6
 8.1842326000e-03     1     3    10     7
 3.0044888000e-03     1     3    10     8
-1.5697900000e-05     1     3    10     9
 8.0531000000e-06     1     3    10    10
-1.5497200000e-05     1     3    10    11
-9.3785290000e-04     1     3    10    12
-1.6355935000e-03     1     3    10    13
-2.9068800000e-04     1     3    11     1
 3.5856200000e-05     1     3    11     2
-4.7699999998e-08     1     3    11     4
 2.0313500000e-05     1     3    11     5
 2.1961100000e-05     1     3    11     6
-3.9037404000e-03     1     3    11     7
 7.4442063000e-03     1     3    11     8
-1.1040310000e-04     1     3    11     9
 2.1427000000e-05     1     3    11    10
 1.0555100000e-05     1     3    11    11
-1.3072038000e-03     1     3    11    12
 1.0600693000e-03     1     3    11    13
-2.9623241200e-02     1     3    12     1
 3.7137753000e-03     1     3    12     2
-2.9642000000e-06     1     3    12     4
 2.1113064000e-03     1     3    12     5
 2.7772989000e-03     1     3    12     6
 1.2018500000e-05     1     3    12     7
-5.4761200000e-05     1     3    12     8
-1.0842435300e-02     1     3    12     9
 1.2489498000e-03     1     3    12    10
 1.3541567000e-03     1     3    12    11
-8.2260000000e-07     1     3    12    12
-3.7781600000e-05     1     3    12    13
-2.4641952000e-03     1     3    13     1
 3.0858980000e-04     1     3    13     2
-2.5628000000e-06     1     3    13     4
 1.7656500000e-04     1     3    13     5
 2.3099800000e-04     1     3    13     6
-2.3733300000e-05     1     3    13     7
-4.2992300000e-05     1     3    13     8
-8.3945640000e-04     1     3    13     9
 1.2390061000e-03     1     3    13    10
-7.4011050000e-04     1     3    13    11
 3.9757100000e-05     1     3    13    12
 5.4034000000e-06     1     3    13    13
 1.3031000000e-06     1     4     2     1
-6.2506000000e-06     1     4     2     2
-2.6940000000e-07     1     4     2     3
-1.0248000000e-06     1     4     2     5
 1.1799190000e-04     1     4     2     6
 4.1683335800e-02     1     4     2     7
-1.0003405400e-02     1     4     2     8
 4.4849700000e-05     1     4     2     9
-6.6602900000e-05     1     4     2    10
-3.7949200000e-05     1     4     2    11
 1.1329379000e-03     1     4     2    12
-1.3606779900e-02     1     4     2    13
 1.9200000000e-08     1     4     3     1
-1.3620000000e-07     1     4     3     2
-5.3376000000e-06     1     4     3     3
 2.1000000000e-09     1     4     3     5
 3.0230000000e-07     1     4     3     6
 4.4919000000e-06     1     4     3     7
-1.6535300000e-05     1     4     3     8
 1.2631025000e-03     1     4     3     9
 3.3430601400e-02     1     4     3    10
-2.5095966600e-02     1     4     3    11
 1.6446360000e-04     1     4     3    12
-5.5397300000e-05     1     4     3    13
-1.7063837540e-01     1     4     4     1
 1.0261213810e-01     1     4     4     2
-3.6615000000e-06     1     4     4     3
-4.1929772000e-03     1     4     4     5
 2.0200700700e-02     1     4     4     6
-9.5358800000e-05     1     4     4     7
 1.0132200000e-05     1     4     4     8
-1.3408870700e-02     1     4     4     9
-2.4265524200e-02     1     4     4    10
-3.2960317600e-02     1     4     4    11
 3.9278440000e-04     1     4     4    12
 8.5087900000e-05     1     4     4    13
 2.0008600000e-05     1     4     5     1
-1.4549000000e-06     1     4     5     2
 1.1200000000e-08     1     4     5     3
-9.7114000000e-06     1     4     5     5
 2.6626000000e-05     1     4     5     6
 1.4157049500e-02     1     4     5     7
-3.3983857000e-03     1     4     5     8
-2.0216350000e-04     1     4     5     9
 1.6691600000e-04     1     4     5    10
 9.5081100000e-05     1     4     5    11
-3.5316770000e-03     1     4     5    12
 4.2422682700e-02     1     4     5    13
 2.3339370000e-04     1     4     6     1
-3.7818800000e-05     1     4     6     2
 1.7210000000e-07     1     4     6     3
-4.2700000000e-08     1     4     6     5
-4.2470100000e-05     1     4     6     6
 8.0079077000e-03     1     4     6     7
-1.9233354000e-03     1     4     6     8
 1.6959000000e-05     1     4     6     9
-4.2108000000e-06     1     4     6    10
 1.6324000000e-05     1     4     6    11
 2.0788900000e-04     1     4     6    12
-2.5050615000e-03     1     4     6    13
 7.9960761200e-02     1     4     7     1
-1.2643626200e-02     1     4     7     2
 8.6830000000e-07     1     4     7     3
-2.8551820000e-04     1     4     7     5
-1.8572525700e-02     1     4     7     6
 2.2308400000e-05     1     4     7     7
 1.7768500000e-05     1     4     7     8
-4.5512000000e-06     1     4     7     9
 3.1824325000e-03     1     4     7    10
 6.8068007000e-03     1     4     7    11
-9.0808200000e-05     1     4     7    12
 1.3476000000e-06     1     4     7    13
-1.9185606500e-02     1     4     8     1
 3.0318679000e-03     1     4     8     2
 7.6780000000e-07     1     4     8     3
 6.7918500000e-05     1     4     8     5
 4.4553098000e-03     1     4     8     6
-1.3681000000e-05     1     4     8     7
-1.2491600000e-05     1     4     8     8
-2.9766070000e-04     1     4     8     9
-6.4967721000e-03     1     4     8    10
 2.6037326000e-03     1     4     8    11
-6.4378000000e-06     1     4     8    12
 1.4856300000e-05     1     4     8    13
 1.0890520000e-04     1     4     9     1
-1.8636100000e-05     1     4     9     2
-2.9900000000e-08     1     4     9     3
-7.0094000000e-06     1     4     9     5
-1.6121600000e-05     1     4     9     6
-4.0491615000e-03     1     4     9     7
 1.1895826000e-03     1     4     9     8
 1.9630900000e-05     1     4     9     9
 1.5136400000e-05     1     4     9    10
 9.7851000000e-06     1     4     9    11
-3.5699760000e-04     1     4     9    12
 3.7766942000e-03     1     4     9    13
-1.4910540000e-04     1     4    10     1
 1.8558600000e-05     1     4    10     2
 4.6960000000e-07     1     4    10     3
 1.1019900000e-05     1     4    10     5
 1.1940200000e-05     1     4    10     6
-2.7010231000e-03     1     4    10     7
 8.1125251000e-03     1     4    10     8
-5.4846600000e-05     1     4    10     9
-1.1297500000e-05     1     4    10    10
-1.9567200000e-05     1     4    10    11
-1.6100218000e-03     1     4    10    12
 6.2822800000e-04     1     4    10    13
-8.3144600000e-05     1     4    11     1
 1.0770900000e-05     1     4    11     2
 4.7699999998e-08     1     4    11     3
 5.4878000000e-06     1     4    11     5
-1.3173000000e-05     1     4    11     6
-7.4825438000e-03     1     4    11     7
-3.8946808000e-03     1     4    11     8
-2.8913800000e-05     1     4    11     9
 1.5507200000e-05     1     4    11    10
-1.0643000000e-05     1     4    11    11
 1.0598068000e-03     1     4    11    12
 1.3171152000e-03     1     4    11    13
 2.4660770000e-03     1     4    12     1
-3.0885460000e-04     1     4    12     2
 2.9642000000e-06     1     4    12     3
-1.7663380000e-04     1     4    12     5
-2.3119910000e-04     1     4    12     6
 7.0233100000e-05     1     4    12     7
 1.8856900000e-05     1     4    12     8
 9.7145240000e-04     1     4    12     9
 1.1812026000e-03     1     4    12    10
-7.3267670000e-04     1     4    12    11
-7.9016000000e-06     1     4    12    12
-2.6738300000e-05     1     4    12    13
-2.9620920000e-02     1     4    13     1
 3.7135729000e-03     1     4    13     2
 2.5628000000e-06     1     4    13     3
 2.1115913000e-03     1     4    13     5
 2.7768626000e-03     1     4    13     6
 9.1897000000e-06     1     4    13     7
-1.7430700000e-05     1     4    13     8
-1.0917276200e-02     1     4    13     9
-5.5627560000e-04     1     4    13    10
-1.4463549000e-03     1     4    13    11
 3.0370100000e-05     1     4    13    12
-1.2113000000e-06     1     4    13    13
-2.8173217000e-03     1     5     2     1
 5.1827619000e-03     1     5     2     2
-7.6750000000e-07     1     5     2     3
 1.0248000000e-06     1     5     2     4
-7.4125420000e-03     1     5     2     6
 3.1218000000e-05     1     5     2     7
-9.9672000000e-06     1     5     2     8
-3.7100304900e-02     1     5     2     9
 1.2868239000e-03     1     5     2    10
-1.4111540000e-04     1     5     2    11
 6.8190500000e-05     1     5     2    12
-1.1125150000e-04     1     5     2    13
-1.4985500000e-05     1     5     3     1
 3.5940000000e-07     1     5     3     2
 4.1926011000e-03     1     5     3     3
-2.1000000000e-09     1     5     3     4
 3.0701300000e-05     1     5     3     6
 3.4660576000e-03     1     5     3     7
 1.4444248300e-02     1     5     3     8
 1.0759720000e-04     1     5     3     9
 7.2823700000e-05     1     5     3    10
 3.4680660000e-04     1     5     3    11
 4.0310228800e-02     1     5     3    12
 3.3549682000e-03     1     5     3    13
 2.0008600000e-05     1     5     4     1
-4.3010000000e-07     1     5     4     2
 9.1000000000e-09     1     5     4     3
 4.1929772000e-03     1     5     4     4
 2.6668700000e-05     1     5     4     6
 1.4442567700e-02     1     5     4     7
-3.4663042000e-03     1     5     4     8
-1.9515410000e-04     1     5     4     9
 1.5589610000e-04     1     5     4    10
 8.9593300000e-05     1     5     4    11
-3.3550432000e-03     1     5     4    12
 4.0311091400e-02     1     5     4    13
-2.0241773660e-01     1     5     5     1
 1.0918527990e-01     1     5     5     2
-6.8586000000e-06     1     5     5     3
 9.7114000000e-06     1     5     5     4
 3.3986557700e-02     1     5     5     6
-5.5765100000e-05     1     5     5     7
-7.4859300000e-05     1     5     5     8
 2.1248246300e-02     1     5     5     9
-7.4187260000e-04     1     5     5    10
-1.2461000000e-06     1     5     5    11
-1.6470720000e-04     1     5     5    12
 2.4518480000e-04     1     5     5    13
-1.7865677600e-02     1     5     6     1
 2.5887941000e-03     1     5     6     2
 9.8670000000e-07     1     5     6     3
 4.2700000000e-08     1     5     6     4
 3.9344200000e-03     1     5     6     6
 3.8340000000e-06     1     5     6     7
 6.6947000000e-06     1     5     6     8
-1.8631956900e-02     1     5     6     9
 5.5951910000e-04     1     5     6    10
-6.1279000000e-05     1     5     6    11
 1.5550300000e-05     1     5     6    12
-7.9573200000e-05     1     5     6    13
 6.1344000000e-05     1     5     7     1
-5.7743000000e-06     1     5     7     2
 6.7872600000e-05     1     5     7     3
 2.8551820000e-04     1     5     7     4
 2.4823000000e-06     1     5     7     6
 6.4614506000e-03     1     5     7     7
 4.8150000000e-07     1     5     7     8
 8.7578300000e-05     1     5     7     9
-4.8755100000e-05     1     5     7    10
-4.5412600000e-05     1     5     7    11
-1.7282544000e-03     1     5     7    12
-1.1271642700e-02     1     5     7    13
-6.7212000000e-06     1     5     8     1
-2.7179000000e-06     1     5     8     2
 2.8503580000e-04     1     5     8     3
-6.7918500000e-05     1     5     8     4
 9.3893000000e-06     1     5     8     6
-5.2880000000e-07     1     5     8     7
 6.4607606000e-03     1     5     8     8
-1.6816000000e-05     1     5     8     9
-6.7609000000e-06     1     5     8    10
-8.4964200000e-05     1     5     8    11
-1.1268518100e-02     1     5     8    12
 1.7290783000e-03     1     5     8    13
-8.0059127100e-02     1     5     9     1
 1.5500479600e-02     1     5     9     2
-3.1829000000e-06     1     5     9     3
 7.0094000000e-06     1     5     9     4
 8.7384713000e-03     1     5     9     6
-5.2764800000e-05     1     5     9     7
 1.6742700000e-05     1     5     9     8
 3.2919490000e-03     1     5     9     9
 1.9082560000e-04     1     5     9    10
-2.9318800000e-05     1     5     9    11
-1.5158400000e-05     1     5     9    12
 1.9512500000e-05     1     5     9    13
 2.8118990000e-03     1     5    10     1
-5.3473000000e-04     1     5    10     2
-2.4948000000e-06     1     5    10     3
-1.1019900000e-05     1     5    10     4
-3.6844810000e-04     1     5    10     6
 2.9414100000e-05     1     5    10     7
 7.3244000000e-06     1     5    10     8
 1.8517700000e-04     1     5    10     9
 8.1165730000e-03     1     5    10    10
 1.0329000000e-06     1     5    10    11
-3.2576000000e-06     1     5    10    12
-1.2999500000e-05     1     5    10    13
-3.0125710000e-04     1     5    11     1
 5.7075200000e-05     1     5    11     2
-2.0313500000e-05     1     5    11     3
-5.4878000000e-06     1     5    11     4
 4.0951500000e-05     1     5    11     6
 2.9506600000e-05     1     5    11     7
 5.4965500000e-05     1     5    11     8
-9.6619000000e-06     1     5    11     9
 4.0210000000e-07     1     5    11    10
 8.1234151000e-03     1     5    11    11
-2.4998500000e-05     1     5    11    12
-6.9632000000e-06     1     5    11    13
 1.5044550000e-04     1     5    12     1
-2.6572900000e-05     1     5    12     2
-2.1113064000e-03     1     5    12     3
 1.7663380000e-04     1     5    12     4
-1.0639900000e-05     1     5    12     6
 9.9177790000e-04     1     5    12     7
 6.4315292000e-03     1     5    12     8
 2.3213400000e-05     1     5    12     9
-2.3330000000e-06     1     5    12    10
-2.7958800000e-05     1     5    12    11
 5.6281103000e-03     1     5    12    12
 4.4790000000e-07     1     5    12    13
-2.4757970000e-04     1     5    13     1
 4.5103500000e-05     1     5    13     2
-1.7656500000e-04     1     5    13     3
-2.1115913000e-03     1     5    13     4