&FCI NORB=  2,NELEC=  2,MS2=0,
 ORBSYM=1,1
 ISYM=1,
&END
 2.0250717950e-01     1     1     2     2
-2.0250717950e-01     1     2     2     1
-2.0250717950e-01     2     1     1     2
 2.0250717950e-01     2     2     1     1
0.0 0 0 0 0
 2.0250717950e-01     1     1     2     2
-2.0250717950e-01     1     2     2     1
-2.0250717950e-01     2     1     1     2
 2.0250717950e-01     2     2     1     1
0.0 0 0 0 0
 3.7375690730e-01     1     1     1     1
-1.1864080340e-01     1     1     1     2
-1.1864080340e-01     1     1     2     1
 3.0590936830e-01     1     1     2     2
-1.1864080340e-01     1     2     1     1
 1.0340218880e-01     1     2     1     2
 1.0340218880e-01     1     2     2     1
-6.8857661700e-02     1     2     2     2
-1.1864080340e-01     2     1     1     1
 1.0340218880e-01     2     1     1     2
 1.0340218880e-01     2     1     2     1
-6.8857661700e-02     2     1     2     2
 3.0590936830e-01     2     2     1     1
-6.8857661700e-02     2     2     1     2
-6.8857661700e-02     2     2     2     1
 2.8514569210e-01     2     2     2     2
0.0 0 0 0 0
-5.9025946440e-01     1     1     0     0
 1.1864515310e-01     1     2     0     0
 1.1864515310e-01     2     1     0     0
-4.0067981610e-01     2     2     0     0
0.0 0 0 0 0
-5.9025946440e-01     1     1     0     0
 1.1864515310e-01     1     2     0     0
 1.1864515310e-01     2     1     0     0
-4.0067981610e-01     2     2     0     0
0.0000000000e+00 0 0 0 0
