&FCI NORB=  2,NELEC=  2,MS2=0,
 ORBSYM=1,1
 ISYM=1,
&END
 3.2009914990e-01     1     1     2     2
-3.2009914990e-01     1     2     2     1
-3.2009914990e-01     2     1     1     2
 3.2009914990e-01     2     2     1     1
0.0 0 0 0 0
 3.2009914990e-01     1     1     2     2
-3.2009914990e-01     1     2     2     1
-3.2009914990e-01     2     1     1     2
 3.2009914990e-01     2     2     1     1
0.0 0 0 0 0
 4.8064414210e-01     1     1     1     1
 1.4241480220e-01     1     1     1     2
 1.4241480220e-01     1     1     2     1
 4.3518206900e-01     1     1     2     2
 1.4241480220e-01     1     2     1     1
 1.1508291910e-01     1     2     1     2
 1.1508291910e-01     1     2     2     1
 1.3824818050e-01     1     2     2     2
 1.4241480220e-01     2     1     1     1
 1.1508291910e-01     2     1     1     2
 1.1508291910e-01     2     1     2     1
 1.3824818050e-01     2     1     2     2
 4.3518206900e-01     2     2     1     1
 1.3824818050e-01     2     2     1     2
 1.3824818050e-01     2     2     2     1
 4.1998293660e-01     2     2     2     2
0.0 0 0 0 0
-7.7792819350e-01     1     1     0     0
-1.4241461700e-01     1     2     0     0
-1.4241461700e-01     2     1     0     0
-3.1333265190e-01     2     2     0     0
0.0 0 0 0 0
-7.7792819350e-01     1     1     0     0
-1.4241461700e-01     1     2     0     0
-1.4241461700e-01     2     1     0     0
-3.1333265190e-01     2     2     0     0
0.0000000000e+00 0 0 0 0
