&FCI NORB=  2,NELEC=  2,MS2=0,
 ORBSYM=1,1
 ISYM=1,
&END
 3.0963220020e-01     1     1     2     2
-3.0963220020e-01     1     2     2     1
-3.0963220020e-01     2     1     1     2
 3.0963220020e-01     2     2     1     1
0.0 0 0 0 0
 3.0963220020e-01     1     1     2     2
-3.0963220020e-01     1     2     2     1
-3.0963220020e-01     2     1     1     2
 3.0963220020e-01     2     2     1     1
0.0 0 0 0 0
 4.6220888560e-01     1     1     1     1
 1.3275077570e-01     1     1     1     2
 1.3275077570e-01     1     1     2     1
 4.2399657790e-01     1     1     2     2
 1.3275077570e-01     1     2     1     1
 1.1436437770e-01     1     2     1     2
 1.1436437770e-01     1     2     2     1
 1.3043428610e-01     1     2     2     2
 1.3275077570e-01     2     1     1     1
 1.1436437770e-01     2     1     1     2
 1.1436437770e-01     2     1     2     1
 1.3043428610e-01     2     1     2     2
 4.2399657790e-01     2     2     1     1
 1.3043428610e-01     2     2     1     2
 1.3043428610e-01     2     2     2     1
 4.1497557260e-01     2     2     2     2
0.0 0 0 0 0
-7.4924164290e-01     1     1     0     0
-1.3275089110e-01     1     2     0     0
-1.3275089110e-01     2     1     0     0
-3.3297407500e-01     2     2     0     0
0.0 0 0 0 0
-7.4924164290e-01     1     1     0     0
-1.3275089110e-01     1     2     0     0
-1.3275089110e-01     2     1     0     0
-3.3297407500e-01     2     2     0     0
0.0000000000e+00 0 0 0 0
