&FCI NORB=  2,NELEC=  2,MS2=0,
 ORBSYM=1,1
 ISYM=1,
&END
 8.3605546200e-02     1     1     2     2
-8.3605546200e-02     1     2     2     1
-8.3605546200e-02     2     1     1     2
 8.3605546200e-02     2     2     1     1
0.0 0 0 0 0
 8.3605546200e-02     1     1     2     2
-8.3605546200e-02     1     2     2     1
-8.3605546200e-02     2     1     1     2
 8.3605546200e-02     2     2     1     1
0.0 0 0 0 0
 3.1740569220e-01     1     1     1     1
-1.2267308100e-01     1     1     1     2
-1.2267308100e-01     1     1     2     1
 1.7935451190e-01     1     1     2     2
-1.2267308100e-01     1     2     1     1
 9.5748965700e-02     1     2     1     2
 9.5748965700e-02     1     2     2     1
-6.7553641000e-03     1     2     2     2
-1.2267308100e-01     2     1     1     1
 9.5748965700e-02     2     1     1     2
 9.5748965700e-02     2     1     2     1
-6.7553641000e-03     2     1     2     2
 1.7935451190e-01     2     2     1     1
-6.7553641000e-03     2     2     1     2
-6.7553641000e-03     2     2     2     1
 1.8932584330e-01     2     2     2     2
0.0 0 0 0 0
-4.8647558490e-01     1     1     0     0
 1.2267073050e-01     1     2     0     0
 1.2267073050e-01     2     1     0     0
-3.3644229500e-01     2     2     0     0
0.0 0 0 0 0
-4.8647558490e-01     1     1     0     0
 1.2267073050e-01     1     2     0     0
 1.2267073050e-01     2     1     0     0
-3.3644229500e-01     2     2     0     0
0.0000000000e+00 0 0 0 0
