&FCI NORB=  2,NELEC=  2,MS2=0,
 ORBSYM=1,1
 ISYM=1,
&END
 1.4859423730e-01     1     1     2     2
-1.4859423730e-01     1     2     2     1
-1.4859423730e-01     2     1     1     2
 1.4859423730e-01     2     2     1     1
0.0 0 0 0 0
 1.4859423730e-01     1     1     2     2
-1.4859423730e-01     1     2     2     1
-1.4859423730e-01     2     1     1     2
 1.4859423730e-01     2     2     1     1
0.0 0 0 0 0
 3.5079282170e-01     1     1     1     1
-1.1872353020e-01     1     1     1     2
-1.1872353020e-01     1     1     2     1
 2.4055555530e-01     1     1     2     2
-1.1872353020e-01     1     2     1     1
 9.1961318000e-02     1     2     1     2
 9.1961318000e-02     1     2     2     1
-3.4852347600e-02     1     2     2     2
-1.1872353020e-01     2     1     1     1
 9.1961318000e-02     2     1     1     2
 9.1961318000e-02     2     1     2     1
-3.4852347600e-02     2     1     2     2
 2.4055555530e-01     2     2     1     1
-3.4852347600e-02     2     2     1     2
-3.4852347600e-02     2     2     2     1
 2.2548740380e-01     2     2     2     2
0.0 0 0 0 0
-5.4465508320e-01     1     1     0     0
 1.1873046140e-01     1     2     0     0
 1.1873046140e-01     2     1     0     0
-3.8090521800e-01     2     2     0     0
0.0 0 0 0 0
-5.4465508320e-01     1     1     0     0
 1.1873046140e-01     1     2     0     0
 1.1873046140e-01     2     1     0     0
-3.8090521800e-01     2     2     0     0
0.0000000000e+00 0 0 0 0
