&FCI NORB=  2,NELEC=  2,MS2=0,
 ORBSYM=1,1
 ISYM=1,
&END
 3.2457580610e-01     1     1     2     2
-3.2457580610e-01     1     2     2     1
-3.2457580610e-01     2     1     1     2
 3.2457580610e-01     2     2     1     1
0.0 0 0 0 0
 3.2457580610e-01     1     1     2     2
-3.2457580610e-01     1     2     2     1
-3.2457580610e-01     2     1     1     2
 3.2457580610e-01     2     2     1     1
0.0 0 0 0 0
 4.9063305720e-01     1     1     1     1
 1.4750439260e-01     1     1     1     2
 1.4750439260e-01     1     1     2     1
 4.4013344140e-01     1     1     2     2
 1.4750439260e-01     1     2     1     1
 1.1555763530e-01     1     2     1     2
 1.1555763530e-01     1     2     2     1
 1.4052413370e-01     1     2     2     2
 1.4750439260e-01     2     1     1     1
 1.1555763530e-01     2     1     1     2
 1.1555763530e-01     2     1     2     1
 1.4052413370e-01     2     1     2     2
 4.4013344140e-01     2     2     1     1
 1.4052413370e-01     2     2     1     2
 1.4052413370e-01     2     2     2     1
 4.1996704510e-01     2     2     2     2
0.0 0 0 0 0
-7.9276031760e-01     1     1     0     0
-1.4750401230e-01     1     2     0     0
-1.4750401230e-01     2     1     0     0
-3.0744066860e-01     2     2     0     0
0.0 0 0 0 0
-7.9276031760e-01     1     1     0     0
-1.4750401230e-01     1     2     0     0
-1.4750401230e-01     2     1     0     0
-3.0744066860e-01     2     2     0     0
0.0000000000e+00 0 0 0 0
