&FCI NORB=  2,NELEC=  2,MS2=0,
 ORBSYM=1,1
 ISYM=1,
&END
 1.2739657120e-01     1     1     2     2
-1.2739657120e-01     1     2     2     1
-1.2739657120e-01     2     1     1     2
 1.2739657120e-01     2     2     1     1
0.0 0 0 0 0
 1.2739657120e-01     1     1     2     2
-1.2739657120e-01     1     2     2     1
-1.2739657120e-01     2     1     1     2
 1.2739657120e-01     2     2     1     1
0.0 0 0 0 0
 3.4211353610e-01     1     1     1     1
-1.1789410480e-01     1     1     1     2
-1.1789410480e-01     1     1     2     1
 2.1546719700e-01     1     1     2     2
-1.1789410480e-01     1     2     1     1
 8.8070625800e-02     1     2     1     2
 8.8070625800e-02     1     2     2     1
-2.1336717300e-02     1     2     2     2
-1.1789410480e-01     2     1     1     1
 8.8070625800e-02     2     1     1     2
 8.8070625800e-02     2     1     2     1
-2.1336717300e-02     2     1     2     2
 2.1546719700e-01     2     2     1     1
-2.1336717300e-02     2     2     1     2
-2.1336717300e-02     2     2     2     1
 2.0981406970e-01     2     2     2     2
0.0 0 0 0 0
-5.2829377590e-01     1     1     0     0
 1.1790097080e-01     1     2     0     0
 1.1790097080e-01     2     1     0     0
-3.6770299170e-01     2     2     0     0
0.0 0 0 0 0
-5.2829377590e-01     1     1     0     0
 1.1790097080e-01     1     2     0     0
 1.1790097080e-01     2     1     0     0
-3.6770299170e-01     2     2     0     0
0.0000000000e+00 0 0 0 0
