&FCI NORB=  2,NELEC=  2,MS2=0,
 ORBSYM=1,1
 ISYM=1,
&END
 3.1518357990e-01     1     1     2     2
-3.1518357990e-01     1     2     2     1
-3.1518357990e-01     2     1     1     2
 3.1518357990e-01     2     2     1     1
0.0 0 0 0 0
 3.1518357990e-01     1     1     2     2
-3.1518357990e-01     1     2     2     1
-3.1518357990e-01     2     1     1     2
 3.1518357990e-01     2     2     1     1
0.0 0 0 0 0
 4.7117190140e-01     1     1     1     1
 1.3734690200e-01     1     1     1     2
 1.3734690200e-01     1     1     2     1
 4.2991431310e-01     1     1     2     2
 1.3734690200e-01     1     2     1     1
 1.1473073320e-01     1     2     1     2
 1.1473073320e-01     1     2     2     1
 1.3478645650e-01     1     2     2     2
 1.3734690200e-01     2     1     1     1
 1.1473073320e-01     2     1     1     2
 1.1473073320e-01     2     1     2     1
 1.3478645650e-01     2     1     2     2
 4.2991431310e-01     2     2     1     1
 1.3478645650e-01     2     2     1     2
 1.3478645650e-01     2     2     2     1
 4.1849794270e-01     2     2     2     2
0.0 0 0 0 0
-7.6338731420e-01     1     1     0     0
-1.3734689770e-01     1     2     0     0
-1.3734689770e-01     2     1     0     0
-3.2232164600e-01     2     2     0     0
0.0 0 0 0 0
-7.6338731420e-01     1     1     0     0
-1.3734689770e-01     1     2     0     0
-1.3734689770e-01     2     1     0     0
-3.2232164600e-01     2     2     0     0
0.0000000000e+00 0 0 0 0
