&FCI NORB=  2,NELEC=  2,MS2=0,
 ORBSYM=1,1
 ISYM=1,
&END
 2.9692762820e-01     1     1     2     2
-2.9692762820e-01     1     2     2     1
-2.9692762820e-01     2     1     1     2
 2.9692762820e-01     2     2     1     1
0.0 0 0 0 0
 2.9692762820e-01     1     1     2     2
-2.9692762820e-01     1     2     2     1
-2.9692762820e-01     2     1     1     2
 2.9692762820e-01     2     2     1     1
0.0 0 0 0 0
 4.4581868010e-01     1     1     1     1
 1.2563949790e-01     1     1     1     2
 1.2563949790e-01     1     1     2     1
 4.1038600090e-01     1     1     2     2
 1.2563949790e-01     1     2     1     1
 1.1345837270e-01     1     2     1     2
 1.1345837270e-01     1     2     2     1
 1.2069106590e-01     1     2     2     2
 1.2563949790e-01     2     1     1     1
 1.1345837270e-01     2     1     1     2
 1.1345837270e-01     2     1     2     1
 1.2069106590e-01     2     1     2     2
 4.1038600090e-01     2     2     1     1
 1.2069106590e-01     2     2     1     2
 1.2069106590e-01     2     2     2     1
 4.0294191590e-01     2     2     2     2
0.0 0 0 0 0
-7.2247919820e-01     1     1     0     0
-1.2564000680e-01     1     2     0     0
-1.2564000680e-01     2     1     0     0
-3.5459180210e-01     2     2     0     0
0.0 0 0 0 0
-7.2247919820e-01     1     1     0     0
-1.2564000680e-01     1     2     0     0
-1.2564000680e-01     2     1     0     0
-3.5459180210e-01     2     2     0     0
0.0000000000e+00 0 0 0 0
