&FCI NORB=  2,NELEC=  2,MS2=0,
 ORBSYM=1,1
 ISYM=1,
&END
 2.6290230250e-01     1     1     2     2
-2.6290230250e-01     1     2     2     1
-2.6290230250e-01     2     1     1     2
 2.6290230250e-01     2     2     1     1
0.0 0 0 0 0
 2.6290230250e-01     1     1     2     2
-2.6290230250e-01     1     2     2     1
-2.6290230250e-01     2     1     1     2
 2.6290230250e-01     2     2     1     1
0.0 0 0 0 0
 4.1329188730e-01     1     1     1     1
-1.1801574250e-01     1     1     1     2
-1.1801574250e-01     1     1     2     1
 3.7364686860e-01     1     1     2     2
-1.1801574250e-01     1     2     1     1
 1.1074456610e-01     1     2     1     2
 1.1074456610e-01     1     2     2     1
-9.9642687400e-02     1     2     2     2
-1.1801574250e-01     2     1     1     1
 1.1074456610e-01     2     1     1     2
 1.1074456610e-01     2     1     2     1
-9.9642687400e-02     2     1     2     2
 3.7364686860e-01     2     2     1     1
-9.9642687400e-02     2     2     1     2
-9.9642687400e-02     2     2     2     1
 3.6261447660e-01     2     2     2     2
0.0 0 0 0 0
-6.6594090410e-01     1     1     0     0
 1.1801740170e-01     1     2     0     0
 1.1801740170e-01     2     1     0     0
-3.9024612060e-01     2     2     0     0
0.0 0 0 0 0
-6.6594090410e-01     1     1     0     0
 1.1801740170e-01     1     2     0     0
 1.1801740170e-01     2     1     0     0
-3.9024612060e-01     2     2     0     0
0.0000000000e+00 0 0 0 0
