&FCI NORB=  2,NELEC=  2,MS2=0,
 ORBSYM=1,1
 ISYM=1,
&END
 3.2910915590e-01     1     1     2     2
-3.2910915590e-01     1     2     2     1
-3.2910915590e-01     2     1     1     2
 3.2910915590e-01     2     2     1     1
0.0 0 0 0 0
 3.2910915590e-01     1     1     2     2
-3.2910915590e-01     1     2     2     1
-3.2910915590e-01     2     1     1     2
 3.2910915590e-01     2     2     1     1
0.0 0 0 0 0
 5.0115404310e-01     1     1     1     1
 1.5217908260e-01     1     1     1     2
 1.5217908260e-01     1     1     2     1
 4.4555890760e-01     1     1     2     2
 1.5217908260e-01     1     2     1     1
 1.1644975170e-01     1     2     1     2
 1.1644975170e-01     1     2     2     1
 1.4195526350e-01     1     2     2     2
 1.5217908260e-01     2     1     1     1
 1.1644975170e-01     2     1     1     2
 1.1644975170e-01     2     1     2     1
 1.4195526350e-01     2     1     2     2
 4.4555890760e-01     2     2     1     1
 1.4195526350e-01     2     2     1     2
 1.4195526350e-01     2     2     2     1
 4.2016256510e-01     2     2     2     2
0.0 0 0 0 0
-8.0776737030e-01     1     1     0     0
-1.5217864100e-01     1     2     0     0
-1.5217864100e-01     2     1     0     0
-3.0537697630e-01     2     2     0     0
0.0 0 0 0 0
-8.0776737030e-01     1     1     0     0
-1.5217864100e-01     1     2     0     0
-1.5217864100e-01     2     1     0     0
-3.0537697630e-01     2     2     0     0
0.0000000000e+00 0 0 0 0
