&FCI NORB=  2,NELEC=  2,MS2=0,
 ORBSYM=1,1
 ISYM=1,
&END
 1.0034453560e-01     1     1     2     2
-1.0034453560e-01     1     2     2     1
-1.0034453560e-01     2     1     1     2
 1.0034453560e-01     2     2     1     1
0.0 0 0 0 0
 1.0034453560e-01     1     1     2     2
-1.0034453560e-01     1     2     2     1
-1.0034453560e-01     2     1     1     2
 1.0034453560e-01     2     2     1     1
0.0 0 0 0 0
 3.2818515560e-01     1     1     1     1
-1.1961690530e-01     1     1     1     2
-1.1961690530e-01     1     1     2     1
 1.9006515780e-01     1     1     2     2
-1.1961690530e-01     1     2     1     1
 8.9720622200e-02     1     2     1     2
 8.9720622200e-02     1     2     2     1
-9.9572435000e-03     1     2     2     2
-1.1961690530e-01     2     1     1     1
 8.9720622200e-02     2     1     1     2
 8.9720622200e-02     2     1     2     1
-9.9572435000e-03     2     1     2     2
 1.9006515780e-01     2     2     1     1
-9.9572435000e-03     2     2     1     2
-9.9572435000e-03     2     2     2     1
 1.9599584170e-01     2     2     2     2
0.0 0 0 0 0
-5.0373055730e-01     1     1     0     0
 1.1962261920e-01     1     2     0     0
 1.1962261920e-01     2     1     0     0
-3.4846521830e-01     2     2     0     0
0.0 0 0 0 0
-5.0373055730e-01     1     1     0     0
 1.1962261920e-01     1     2     0     0
 1.1962261920e-01     2     1     0     0
-3.4846521830e-01     2     2     0     0
0.0000000000e+00 0 0 0 0
