&FCI NORB=  2,NELEC=  2,MS2=0,
 ORBSYM=1,1
 ISYM=1,
&END
 3.3408607990e-01     1     1     2     2
-3.3408607990e-01     1     2     2     1
-3.3408607990e-01     2     1     1     2
 3.3408607990e-01     2     2     1     1
0.0 0 0 0 0
 3.3408607990e-01     1     1     2     2
-3.3408607990e-01     1     2     2     1
-3.3408607990e-01     2     1     1     2
 3.3408607990e-01     2     2     1     1
0.0 0 0 0 0
 5.1217924120e-01     1     1     1     1
 1.5632022840e-01     1     1     1     2
 1.5632022840e-01     1     1     2     1
 4.5214998290e-01     1     1     2     2
 1.5632022840e-01     1     2     1     1
 1.1806390300e-01     1     2     1     2
 1.1806390300e-01     1     2     2     1
 1.4331272320e-01     1     2     2     2
 1.5632022840e-01     2     1     1     1
 1.1806390300e-01     2     1     1     2
 1.1806390300e-01     2     1     2     1
 1.4331272320e-01     2     1     2     2
 4.5214998290e-01     2     2     1     1
 1.4331272320e-01     2     2     1     2
 1.4331272320e-01     2     2     2     1
 4.2234169240e-01     2     2     2     2
0.0 0 0 0 0
-8.2276261870e-01     1     1     0     0
-1.5631970450e-01     1     2     0     0
-1.5631970450e-01     2     1     0     0
-3.0694045470e-01     2     2     0     0
0.0 0 0 0 0
-8.2276261870e-01     1     1     0     0
-1.5631970450e-01     1     2     0     0
-1.5631970450e-01     2     1     0     0
-3.0694045470e-01     2     2     0     0
0.0000000000e+00 0 0 0 0
