&FCI NORB=  2,NELEC=  2,MS2=0,
 ORBSYM=1,1
 ISYM=1,
&END
 3.0349524660e-01     1     1     2     2
-3.0349524660e-01     1     2     2     1
-3.0349524660e-01     2     1     1     2
 3.0349524660e-01     2     2     1     1
0.0 0 0 0 0
 3.0349524660e-01     1     1     2     2
-3.0349524660e-01     1     2     2     1
-3.0349524660e-01     2     1     1     2
 3.0349524660e-01     2     2     1     1
0.0 0 0 0 0
 4.5375744070e-01     1     1     1     1
-1.2883434680e-01     1     1     1     2
-1.2883434680e-01     1     1     2     1
 4.1743543460e-01     1     1     2     2
-1.2883434680e-01     1     2     1     1
 1.1394018800e-01     1     2     1     2
 1.1394018800e-01     1     2     2     1
-1.2561673380e-01     1     2     2     2
-1.2883434680e-01     2     1     1     1
 1.1394018800e-01     2     1     1     2
 1.1394018800e-01     2     1     2     1
-1.2561673380e-01     2     1     2     2
 4.1743543460e-01     2     2     1     1
-1.2561673380e-01     2     2     1     2
-1.2561673380e-01     2     2     2     1
 4.0963675390e-01     2     2     2     2
0.0 0 0 0 0
-7.3558307330e-01     1     1     0     0
 1.2883480420e-01     1     2     0     0
 1.2883480420e-01     2     1     0     0
-3.4402157960e-01     2     2     0     0
0.0 0 0 0 0
-7.3558307330e-01     1     1     0     0
 1.2883480420e-01     1     2     0     0
 1.2883480420e-01     2     1     0     0
-3.4402157960e-01     2     2     0     0
0.0000000000e+00 0 0 0 0
