&FCI NORB=  2,NELEC=  2,MS2=0,
 ORBSYM=1,1
 ISYM=1,
&END
 1.7485753120e-01     1     1     2     2
-1.7485753120e-01     1     2     2     1
-1.7485753120e-01     2     1     1     2
 1.7485753120e-01     2     2     1     1
0.0 0 0 0 0
 1.7485753120e-01     1     1     2     2
-1.7485753120e-01     1     2     2     1
-1.7485753120e-01     2     1     1     2
 1.7485753120e-01     2     2     1     1
0.0 0 0 0 0
 3.6107707000e-01     1     1     1     1
-1.1944542060e-01     1     1     1     2
-1.1944542060e-01     1     1     2     1
 2.7296173800e-01     1     1     2     2
-1.1944542060e-01     1     2     1     1
 9.8104206800e-02     1     2     1     2
 9.8104206800e-02     1     2     2     1
-5.2614936200e-02     1     2     2     2
-1.1944542060e-01     2     1     1     1
 9.8104206800e-02     2     1     1     2
 9.8104206800e-02     2     1     2     1
-5.2614936200e-02     2     1     2     2
 2.7296173800e-01     2     2     1     1
-5.2614936200e-02     2     2     1     2
-5.2614936200e-02     2     2     2     1
 2.5186144230e-01     2     2     2     2
0.0 0 0 0 0
-5.6485301620e-01     1     1     0     0
 1.1945123250e-01     1     2     0     0
 1.1945123250e-01     2     1     0     0
-3.9292900280e-01     2     2     0     0
0.0 0 0 0 0
-5.6485301620e-01     1     1     0     0
 1.1945123250e-01     1     2     0     0
 1.1945123250e-01     2     1     0     0
-3.9292900280e-01     2     2     0     0
0.0000000000e+00 0 0 0 0
