&FCI NORB=  2,NELEC=  2,MS2=0,
 ORBSYM=1,1
 ISYM=1,
&END
 2.3137585900e-01     1     1     2     2
-2.3137585900e-01     1     2     2     1
-2.3137585900e-01     2     1     1     2
 2.3137585900e-01     2     2     1     1
0.0 0 0 0 0
 2.3137585900e-01     1     1     2     2
-2.3137585900e-01     1     2     2     1
-2.3137585900e-01     2     1     1     2
 2.3137585900e-01     2     2     1     1
0.0 0 0 0 0
 3.9035035720e-01     1     1     1     1
-1.1737987390e-01     1     1     1     2
-1.1737987390e-01     1     1     2     1
 3.3887165110e-01     1     1     2     2
-1.1737987390e-01     1     2     1     1
 1.0749579210e-01     1     2     1     2
 1.0749579210e-01     1     2     2     1
-8.3614127100e-02     1     2     2     2
-1.1737987390e-01     2     1     1     1
 1.0749579210e-01     2     1     1     2
 1.0749579210e-01     2     1     2     1
-8.3614127100e-02     2     1     2     2
 3.3887165110e-01     2     2     1     1
-8.3614127100e-02     2     2     1     2
-8.3614127100e-02     2     2     2     1
 3.2226884790e-01     2     2     2     2
0.0 0 0 0 0
-6.2297157910e-01     1     1     0     0
 1.1738278230e-01     1     2     0     0
 1.1738278230e-01     2     1     0     0
-4.0186245910e-01     2     2     0     0
0.0 0 0 0 0
-6.2297157910e-01     1     1     0     0
 1.1738278230e-01     1     2     0     0
 1.1738278230e-01     2     1     0     0
-4.0186245910e-01     2     2     0     0
0.0000000000e+00 0 0 0 0
